/*--------------------------------*- C++ -*----------------------------------*\
| =========                 |                                                 |
| \\      /  F ield         | OpenFOAM: The Open Source CFD Toolbox           |
|  \\    /   O peration     | Version:  3.0.1                                 |
|   \\  /    A nd           | Web:      www.OpenFOAM.org                      |
|    \\/     M anipulation  |                                                 |
\*---------------------------------------------------------------------------*/
FoamFile
{
    version     2.0;
    format      ascii;
    class       volScalarField;
    location    "2213";
    object      k;
}
// * * * * * * * * * * * * * * * * * * * * * * * * * * * * * * * * * * * * * //

dimensions      [0 2 -2 0 0 0 0];

internalField   nonuniform List<scalar> 
14431
(
0.316101
0.360266
0.361174
0.363025
0.373728
0.447801
0.455551
0.457826
0.459345
0.460699
0.46198
0.463189
0.464318
0.465346
0.46625
0.467009
0.467603
0.468013
0.468224
0.468223
0.467996
0.467537
0.466836
0.465891
0.464696
0.463255
0.461565
0.459619
0.457436
0.455014
0.452348
0.449456
0.446345
0.44301
0.439457
0.435694
0.431725
0.427541
0.423142
0.418546
0.413735
0.408688
0.403411
0.397858
0.391952
0.385646
0.378861
0.371527
0.363563
0.354805
0.345094
0.334249
0.322029
0.308111
0.292085
0.273507
0.251936
0.227534
0.207946
0.280007
0.357128
0.35988
0.364307
0.382779
0.441097
0.453596
0.457523
0.459547
0.46104
0.462327
0.463487
0.464547
0.4655
0.466332
0.467027
0.467567
0.467934
0.468113
0.468091
0.467854
0.467394
0.466701
0.465773
0.464603
0.463193
0.46154
0.459635
0.457498
0.455123
0.452507
0.449662
0.446598
0.443306
0.439792
0.436061
0.432118
0.427952
0.423563
0.418967
0.414148
0.409084
0.403782
0.398197
0.392253
0.385904
0.379074
0.371695
0.363687
0.354891
0.34515
0.334287
0.322064
0.308161
0.292173
0.273654
0.252168
0.227935
0.207957
0.253472
0.353373
0.359107
0.366397
0.389274
0.436738
0.451663
0.457061
0.459658
0.46134
0.462655
0.463779
0.464774
0.465655
0.466418
0.46705
0.467536
0.46786
0.468007
0.467964
0.467715
0.467255
0.46657
0.465658
0.464512
0.463133
0.461517
0.459653
0.45756
0.455233
0.452664
0.449868
0.446849
0.4436
0.440124
0.436426
0.432509
0.428361
0.423981
0.419386
0.414559
0.409478
0.404151
0.398535
0.392554
0.386163
0.379288
0.371864
0.363813
0.354979
0.345208
0.334327
0.322101
0.308213
0.292261
0.273801
0.2524
0.228328
0.207971
0.233644
0.34922
0.35875
0.368969
0.394103
0.433914
0.449936
0.45652
0.459691
0.461594
0.462961
0.46406
0.464999
0.465812
0.466507
0.467077
0.46751
0.467791
0.467906
0.467841
0.467582
0.467119
0.466442
0.465547
0.464424
0.463075
0.461495
0.459672
0.457623
0.455342
0.452821
0.450072
0.447098
0.443891
0.440454
0.436788
0.432896
0.428765
0.424396
0.419802
0.414967
0.409869
0.404519
0.398872
0.392854
0.386422
0.379503
0.372034
0.36394
0.355069
0.345268
0.334369
0.322139
0.308266
0.292349
0.273947
0.252633
0.228714
0.207988
0.21856
0.345009
0.358752
0.371778
0.397835
0.432119
0.448481
0.45596
0.459663
0.461804
0.463242
0.464329
0.465219
0.465969
0.466599
0.467109
0.467489
0.467728
0.467811
0.467724
0.467453
0.46699
0.46632
0.46544
0.46434
0.46302
0.461475
0.459692
0.457687
0.455451
0.452977
0.450274
0.447345
0.44418
0.44078
0.437146
0.433279
0.429166
0.424806
0.420214
0.415371
0.410258
0.404885
0.399207
0.393153
0.386681
0.379719
0.372206
0.36407
0.355162
0.345331
0.334413
0.32218
0.30832
0.292438
0.274093
0.252865
0.229093
0.208006
0.206869
0.340998
0.359071
0.37467
0.40084
0.431028
0.4473
0.455419
0.459592
0.461972
0.463494
0.464583
0.465432
0.466125
0.466693
0.467145
0.467474
0.467671
0.467722
0.467614
0.467331
0.466865
0.466202
0.465337
0.46426
0.462969
0.461459
0.459715
0.457752
0.455561
0.453133
0.450475
0.44759
0.444465
0.441102
0.437499
0.433658
0.429563
0.425212
0.420621
0.415772
0.410644
0.405248
0.399541
0.393452
0.38694
0.379935
0.372379
0.364202
0.355257
0.345396
0.33446
0.322222
0.308376
0.292527
0.274239
0.253097
0.229465
0.208027
0.197625
0.33737
0.35967
0.377545
0.403354
0.430426
0.446372
0.454921
0.459491
0.462101
0.463717
0.464817
0.465635
0.466277
0.466788
0.467184
0.467464
0.467621
0.46764
0.467511
0.467216
0.466748
0.466091
0.465241
0.464185
0.462923
0.461445
0.45974
0.457818
0.455671
0.453288
0.450675
0.447832
0.444748
0.441421
0.437849
0.434032
0.429954
0.425614
0.421024
0.416168
0.411026
0.405607
0.399872
0.393749
0.387198
0.380152
0.372553
0.364335
0.355354
0.345464
0.334509
0.322267
0.308433
0.292617
0.274386
0.253329
0.22983
0.20805
0.19014
0.334272
0.36051
0.38034
0.405526
0.430164
0.445659
0.454475
0.45937
0.462194
0.463908
0.465031
0.465826
0.466423
0.466882
0.467226
0.467459
0.467576
0.467566
0.467414
0.467109
0.466638
0.465987
0.46515
0.464115
0.46288
0.461436
0.459768
0.457886
0.455782
0.453442
0.450873
0.448072
0.445027
0.441735
0.438194
0.434401
0.430341
0.42601
0.421422
0.41656
0.411403
0.405964
0.400201
0.394044
0.387455
0.380368
0.372728
0.36447
0.355453
0.345535
0.334561
0.322313
0.308491
0.292707
0.274532
0.25356
0.230188
0.208075
0.183884
0.331862
0.361546
0.383007
0.40744
0.430132
0.445121
0.454081
0.459235
0.462253
0.464068
0.465221
0.466003
0.466563
0.466974
0.46727
0.467459
0.467538
0.467498
0.467326
0.467008
0.466534
0.465889
0.465066
0.464051
0.462843
0.46143
0.459798
0.457956
0.455894
0.453597
0.451069
0.44831
0.445303
0.442045
0.438533
0.434764
0.430721
0.4264
0.421815
0.416947
0.411777
0.406317
0.400527
0.394338
0.387712
0.380585
0.372904
0.364607
0.355555
0.345608
0.334616
0.322362
0.308552
0.292799
0.274678
0.25379
0.23054
0.208101
0.179045
0.330157
0.362717
0.385492
0.409134
0.430244
0.444718
0.453732
0.459089
0.46228
0.464196
0.465386
0.466163
0.466693
0.467063
0.467315
0.467462
0.467505
0.467437
0.467245
0.466916
0.466439
0.465799
0.464988
0.463993
0.46281
0.461428
0.459832
0.458028
0.456006
0.45375
0.451264
0.448544
0.445575
0.442351
0.438868
0.435122
0.431096
0.426785
0.422201
0.417328
0.412145
0.406666
0.40085
0.394629
0.387967
0.380802
0.373081
0.364746
0.355658
0.345683
0.334673
0.322414
0.308613
0.292891
0.274824
0.254019
0.230884
0.20813
0.00904276
0.0101621
0.0113213
0.0123951
0.0133532
0.0142073
0.0149783
0.0156824
0.0163277
0.0169091
0.0173428
0.0176034
0.017663
0.0174905
0.0170534
0.0163216
0.0152799
0.0140061
0.0135739
0.0302283
0.0128172
0.0137666
0.0147751
0.0152706
0.0153286
0.0150763
0.0146252
0.0140638
0.0134577
0.0128564
0.0123709
0.0120032
0.011736
0.0115425
0.0113845
0.0112126
0.0109736
0.0108202
0.0142331
0.0565045
0.0159168
0.0157774
0.016669
0.017188
0.017238
0.0169167
0.0163481
0.01564
0.0148732
0.0141033
0.0133677
0.0127091
0.0121496
0.0116959
0.0113415
0.0110727
0.0108891
0.0111216
0.0171547
0.0737399
0.0183386
0.0169966
0.0177956
0.0183379
0.0183704
0.0179858
0.0173335
0.0165441
0.0157118
0.0148961
0.0141194
0.0134076
0.0127833
0.0122605
0.0118446
0.0115361
0.0113565
0.0117859
0.0200688
0.0861996
0.0202441
0.0179319
0.0187546
0.019323
0.0192845
0.0187664
0.0179631
0.0170389
0.0161065
0.0152296
0.0144226
0.0136969
0.0130677
0.0125456
0.0121355
0.0118396
0.0116915
0.0123494
0.0229837
0.0963123
0.0217371
0.0187441
0.0196895
0.0202721
0.0201053
0.0193811
0.0183532
0.0172308
0.0161536
0.0151919
0.0143505
0.0136227
0.0130109
0.0125159
0.012138
0.0118785
0.0117923
0.0127883
0.0261386
0.105571
0.022891
0.0195302
0.0206808
0.0212639
0.0209203
0.019924
0.0185959
0.0172039
0.0159282
0.014853
0.013971
0.0132506
0.0126741
0.0122264
0.0118989
0.0116926
0.0117011
0.0131895
0.0297978
0.114799
0.0237629
0.0203548
0.0217779
0.0223493
0.0217919
0.0204656
0.0187604
0.0170169
0.015478
0.0142561
0.0133318
0.0126369
0.012121
0.0117446
0.0114868
0.0113514
0.0114948
0.0136809
0.0342478
0.124476
0.0243993
0.0212631
0.0230111
0.0235619
0.0227711
0.0210729
0.0189198
0.0167357
0.0148543
0.0134438
0.0124795
0.0118388
0.0114173
0.0111405
0.0109732
0.0109286
0.0112597
0.0144283
0.0398233
0.134933
0.0248396
0.0222876
0.0243964
0.0249249
0.0239069
0.0218245
0.0191751
0.0164649
0.0141473
0.0124906
0.011488
0.0109369
0.0106453
0.0104933
0.0104332
0.0104998
0.0110924
0.0156614
0.0469314
0.146463
0.0251181
0.0234523
0.0259384
0.0264579
0.025256
0.0228252
0.0196812
0.0163906
0.0135393
0.0115531
0.0104954
0.0100584
0.00991535
0.00989621
0.0099488
0.0101468
0.0111158
0.0177349
0.0561372
0.159767
0.0252663
0.0247744
0.0276325
0.028182
0.0268883
0.0242154
0.0206665
0.0168262
0.0133822
0.0109529
0.00975544
0.00939776
0.00937099
0.00946026
0.00961353
0.00996801
0.0115175
0.0212303
0.0680868
0.175114
0.0253158
0.0262654
0.0294642
0.030122
0.0288862
0.0261688
0.0224343
0.0182406
0.0142965
0.0113383
0.00975745
0.00925845
0.00920725
0.00933259
0.00956635
0.0101372
0.0126675
0.027138
0.083578
0.191744
0.0252971
0.0278634
0.0314603
0.0324095
0.0314888
0.029041
0.0254536
0.0211933
0.0168831
0.0132686
0.0109728
0.0100759
0.00981262
0.00986803
0.0101838
0.0111614
0.0155498
0.0374969
0.104342
0.207713
0.0252063
0.0295105
0.0336324
0.0351082
0.0348423
0.0331022
0.0301745
0.0263832
0.022163
0.0180903
0.0148393
0.0131977
0.0124646
0.0123392
0.0129188
0.015245
0.024187
0.0554644
0.126953
0.223916
0.0250199
0.0311244
0.0358976
0.0381612
0.0389488
0.0384634
0.0368955
0.0344291
0.0312989
0.0278349
0.0245161
0.0220246
0.0208715
0.0208037
0.0223721
0.0276344
0.0426778
0.0804077
0.151614
0.242002
0.0246913
0.0325434
0.0380424
0.0413157
0.0435246
0.0448327
0.045363
0.0452025
0.0444447
0.0432146
0.0417056
0.0402217
0.0399799
0.0411597
0.044776
0.0533948
0.0726821
0.112441
0.18054
0.265171
0.0241441
0.0334729
0.0396396
0.043986
0.047777
0.0511674
0.0542422
0.0570366
0.0595714
0.0618705
0.0639806
0.0660009
0.0685776
0.0727274
0.0795093
0.0913825
0.113187
0.152858
0.217651
0.298573
0.0232823
0.0334087
0.0399638
0.045138
0.0502219
0.0553963
0.0607463
0.0663043
0.0720858
0.0781064
0.084397
0.0910233
0.0980946
0.106654
0.117893
0.133962
0.158882
0.199352
0.263183
0.345815
0.0220375
0.0316354
0.0381105
0.0435446
0.0490706
0.0549277
0.0612408
0.0680946
0.0755674
0.0837409
0.0927161
0.102633
0.113694
0.126267
0.141521
0.161369
0.189086
0.230509
0.294921
0.389786
0.0204496
0.0282991
0.0350643
0.0409724
0.0464871
0.0518989
0.0572986
0.0627387
0.0683543
0.0742933
0.0807285
0.0878779
0.0960386
0.105651
0.117284
0.131746
0.150456
0.175969
0.213851
0.284296
0.188107
0.329345
0.363923
0.387671
0.410572
0.430426
0.444417
0.453427
0.458936
0.462276
0.464289
0.465521
0.466301
0.466809
0.467145
0.467358
0.467468
0.467478
0.467384
0.467173
0.466833
0.466354
0.465718
0.464919
0.463943
0.462784
0.461431
0.459867
0.4581
0.456116
0.453899
0.451452
0.44877
0.445836
0.442644
0.439189
0.435465
0.431455
0.427153
0.422571
0.417693
0.412499
0.407001
0.40116
0.39491
0.388215
0.381012
0.373254
0.364882
0.355761
0.345759
0.334731
0.322466
0.308676
0.292982
0.274966
0.25424
0.231211
0.20816
0.198945
0.329025
0.36509
0.389583
0.411807
0.430627
0.444174
0.453145
0.458773
0.462245
0.464351
0.46563
0.46642
0.466913
0.467221
0.4674
0.467476
0.467457
0.467337
0.467109
0.466759
0.466276
0.465646
0.464858
0.463899
0.462763
0.461437
0.459905
0.458172
0.456225
0.454046
0.451636
0.448989
0.446089
0.442928
0.439498
0.435796
0.431801
0.427508
0.422929
0.418047
0.412841
0.407325
0.401462
0.395183
0.388456
0.381219
0.373424
0.365017
0.355864
0.345836
0.33479
0.32252
0.308738
0.293072
0.275106
0.254456
0.231527
0.208191
0.20954
0.329028
0.366166
0.391213
0.412843
0.430813
0.443959
0.452874
0.458596
0.462188
0.464386
0.465716
0.466521
0.467007
0.467291
0.467441
0.467486
0.467439
0.467297
0.467051
0.466692
0.466206
0.46558
0.464803
0.463861
0.462746
0.461448
0.459947
0.458247
0.456335
0.454192
0.451818
0.449207
0.44634
0.443208
0.439804
0.436122
0.432143
0.427859
0.423282
0.418396
0.413179
0.407647
0.401761
0.395455
0.388696
0.381425
0.373595
0.365154
0.35597
0.345915
0.334852
0.322575
0.308803
0.293163
0.275246
0.254671
0.231838
0.208224
0.219429
0.329433
0.367176
0.392567
0.413686
0.43096
0.443755
0.452608
0.458406
0.462107
0.464394
0.465778
0.466605
0.467088
0.467355
0.46748
0.467498
0.467425
0.467261
0.467
0.466631
0.466143
0.465521
0.464754
0.463828
0.462736
0.461463
0.459991
0.458324
0.456446
0.454338
0.452
0.449422
0.446587
0.443484
0.440105
0.436443
0.432479
0.428204
0.42363
0.41874
0.413513
0.407964
0.402057
0.395725
0.388935
0.381631
0.373766
0.365292
0.356077
0.345997
0.334916
0.322633
0.308869
0.293255
0.275386
0.254886
0.232144
0.208258
0.228608
0.3303
0.36816
0.393679
0.414355
0.431058
0.443551
0.452341
0.458204
0.462004
0.464377
0.465818
0.466672
0.467158
0.467413
0.467516
0.467511
0.467414
0.467231
0.466955
0.466577
0.466087
0.465469
0.464712
0.463802
0.46273
0.461482
0.46004
0.458403
0.456558
0.454485
0.45218
0.449636
0.446831
0.443756
0.440402
0.43676
0.43281
0.428543
0.423972
0.419079
0.413842
0.408278
0.40235
0.395992
0.389173
0.381837
0.373939
0.365431
0.356186
0.346081
0.334983
0.322694
0.308937
0.293349
0.275527
0.2551
0.232445
0.208293
0.237176
0.331616
0.369154
0.394597
0.414877
0.431108
0.443342
0.452074
0.457991
0.461882
0.464339
0.465838
0.466723
0.467217
0.467464
0.46755
0.467524
0.467407
0.467205
0.466916
0.46653
0.466038
0.465423
0.464676
0.463781
0.462729
0.461506
0.460091
0.458485
0.456672
0.454632
0.45236
0.449848
0.447073
0.444025
0.440694
0.437071
0.433135
0.428878
0.42431
0.419413
0.414167
0.408588
0.40264
0.396257
0.38941
0.382042
0.374111
0.365572
0.356297
0.346167
0.335052
0.322757
0.309007
0.293444
0.275668
0.255312
0.232741
0.208331
0.24528
0.333355
0.3702
0.395378
0.415287
0.431122
0.443133
0.45181
0.457773
0.461746
0.464283
0.465841
0.466759
0.467265
0.467509
0.467582
0.467538
0.467402
0.467185
0.466883
0.46649
0.465996
0.465385
0.464647
0.463767
0.462734
0.461534
0.460146
0.458569
0.456787
0.454779
0.452539
0.450057
0.447312
0.44429
0.440982
0.437378
0.433456
0.429207
0.424641
0.419742
0.414487
0.408895
0.402927
0.396521
0.389646
0.382247
0.374285
0.365714
0.35641
0.346256
0.335124
0.322822
0.309079
0.29354
0.27581
0.255524
0.233033
0.208369
0.253101
0.335516
0.371313
0.396084
0.415628
0.431116
0.44293
0.451553
0.457554
0.461601
0.464212
0.465828
0.466781
0.467303
0.467547
0.467611
0.467552
0.4674
0.467168
0.466855
0.466456
0.46596
0.465353
0.464625
0.463759
0.462744
0.461567
0.460204
0.458656
0.456904
0.454926
0.452717
0.450265
0.447548
0.444552
0.441266
0.43768
0.433771
0.429531
0.424968
0.420066
0.414803
0.409197
0.403211
0.396781
0.38988
0.382452
0.374458
0.365857
0.356525
0.346347
0.335198
0.322889
0.309154
0.293638
0.275952
0.255735
0.23332
0.208409
0.26094
0.338
0.37253
0.396782
0.415944
0.431115
0.442746
0.451313
0.45734
0.461451
0.464131
0.465802
0.466792
0.467332
0.467579
0.467637
0.467566
0.467401
0.467156
0.466833
0.466428
0.465931
0.465328
0.464608
0.463756
0.46276
0.461604
0.460266
0.458745
0.457022
0.455074
0.452895
0.450471
0.447781
0.44481
0.441545
0.437977
0.434081
0.429849
0.425289
0.420385
0.415114
0.409495
0.403491
0.39704
0.390112
0.382656
0.374632
0.366001
0.356641
0.34644
0.335274
0.322959
0.30923
0.293737
0.276095
0.255945
0.233603
0.208451
0.26902
0.340714
0.373915
0.397539
0.416286
0.431146
0.442596
0.451098
0.45714
0.461303
0.464044
0.465767
0.466793
0.467353
0.467606
0.46766
0.46758
0.467403
0.467148
0.466816
0.466406
0.465908
0.465309
0.464598
0.463759
0.46278
0.461645
0.460332
0.458837
0.457141
0.455222
0.453071
0.450676
0.448011
0.445064
0.44182
0.438269
0.434386
0.430162
0.425606
0.420699
0.415421
0.409789
0.403768
0.397296
0.390343
0.382859
0.374807
0.366147
0.35676
0.346535
0.335354
0.323031
0.309308
0.293837
0.276238
0.256154
0.233881
0.208494
0.277034
0.343714
0.375539
0.39843
0.416707
0.431239
0.442496
0.450918
0.456958
0.461161
0.463954
0.465725
0.466786
0.467367
0.467628
0.467681
0.467594
0.467408
0.467143
0.466804
0.46639
0.465892
0.465297
0.464595
0.463768
0.462806
0.461691
0.460401
0.458931
0.457262
0.455371
0.453247
0.450878
0.448239
0.445315
0.442091
0.438556
0.434686
0.43047
0.425916
0.421008
0.415723
0.410079
0.404042
0.397549
0.390573
0.383062
0.374981
0.366293
0.35688
0.346633
0.335435
0.323106
0.309388
0.293939
0.276382
0.256362
0.234156
0.208538
0.284757
0.347094
0.377496
0.399535
0.417258
0.431423
0.442462
0.450783
0.456803
0.46103
0.463865
0.465678
0.466773
0.467374
0.467646
0.4677
0.467608
0.467415
0.467143
0.466797
0.466379
0.465881
0.465291
0.464597
0.463783
0.462837
0.461741
0.460473
0.459028
0.457385
0.455519
0.453422
0.451079
0.448465
0.445562
0.442358
0.438839
0.434981
0.430773
0.426222
0.421312
0.41602
0.410366
0.404313
0.3978
0.3908
0.383264
0.375156
0.36644
0.357001
0.346733
0.335519
0.323183
0.30947
0.294042
0.276526
0.256568
0.234426
0.208584
0.292454
0.350998
0.379904
0.400936
0.417993
0.431726
0.442508
0.4507
0.456677
0.460913
0.46378
0.465628
0.466754
0.467377
0.46766
0.467716
0.467623
0.467424
0.467145
0.466795
0.466374
0.465877
0.465291
0.464605
0.463803
0.462872
0.461795
0.460549
0.459127
0.457508
0.455669
0.453597
0.451279
0.448687
0.445806
0.442621
0.439117
0.435271
0.43107
0.426523
0.421611
0.416313
0.410648
0.40458
0.398048
0.391026
0.383465
0.375331
0.366589
0.357125
0.346834
0.335605
0.323262
0.309554
0.294147
0.276671
0.256774
0.234692
0.208631
0.300606
0.35567
0.382914
0.402718
0.418956
0.432171
0.442643
0.450672
0.456584
0.460811
0.463699
0.465578
0.466731
0.467375
0.46767
0.467731
0.467637
0.467434
0.467151
0.466797
0.466374
0.465878
0.465296
0.464619
0.463829
0.462913
0.461854
0.460628
0.459228
0.457634
0.455818
0.453771
0.451476
0.448908
0.446047
0.44288
0.439391
0.435556
0.431362
0.426818
0.421905
0.416602
0.410926
0.404844
0.398294
0.391251
0.383665
0.375506
0.366738
0.357249
0.346938
0.335693
0.323343
0.30964
0.294253
0.276816
0.256979
0.234955
0.20868
0.309956
0.361479
0.386697
0.404958
0.420181
0.432769
0.442872
0.450701
0.456524
0.460726
0.463624
0.465526
0.466705
0.467368
0.467676
0.467744
0.467651
0.467447
0.46716
0.466803
0.466379
0.465885
0.465308
0.464638
0.463859
0.462958
0.461917
0.46071
0.459332
0.45776
0.455968
0.453945
0.451673
0.449125
0.446285
0.443135
0.43966
0.435836
0.43165
0.427109
0.422194
0.416885
0.4112
0.405105
0.398537
0.391474
0.383865
0.375681
0.366888
0.357376
0.347044
0.335784
0.323427
0.309728
0.294361
0.276962
0.257183
0.235213
0.208729
0.321838
0.368964
0.39144
0.40771
0.421679
0.433518
0.443188
0.450782
0.456493
0.460656
0.463555
0.465475
0.466676
0.467358
0.46768
0.467755
0.467665
0.46746
0.467172
0.466814
0.46639
0.465897
0.465325
0.464663
0.463896
0.463008
0.461983
0.460796
0.459438
0.457888
0.456119
0.454118
0.451868
0.449341
0.446519
0.443386
0.439925
0.436112
0.431932
0.427394
0.422479
0.417165
0.41147
0.405362
0.398778
0.391695
0.384064
0.375855
0.367038
0.357503
0.347151
0.335876
0.323513
0.309819
0.29447
0.277108
0.257386
0.235469
0.20878
0.338594
0.378833
0.397294
0.410974
0.423426
0.434396
0.443576
0.450905
0.456485
0.460598
0.463489
0.465423
0.466643
0.467345
0.467681
0.467765
0.467679
0.467475
0.467187
0.466828
0.466404
0.465915
0.465347
0.464694
0.463937
0.463063
0.462054
0.460885
0.459547
0.458018
0.45627
0.45429
0.452061
0.449554
0.446751
0.443633
0.440186
0.436383
0.43221
0.427675
0.422758
0.41744
0.411737
0.405616
0.399016
0.391914
0.384261
0.37603
0.36719
0.357632
0.34726
0.335971
0.323601
0.309911
0.29458
0.277255
0.257587
0.23572
0.208832
0.363962
0.391882
0.404278
0.414663
0.425352
0.43536
0.444012
0.451056
0.456495
0.460548
0.463426
0.465369
0.466608
0.467328
0.467679
0.467773
0.467693
0.467492
0.467204
0.466846
0.466424
0.465937
0.465375
0.464729
0.463983
0.463122
0.462128
0.460977
0.459658
0.458148
0.456421
0.454462
0.452253
0.449765
0.446979
0.443876
0.440442
0.436649
0.432483
0.427951
0.423034
0.417711
0.411999
0.405867
0.399252
0.392131
0.384458
0.376205
0.367342
0.357762
0.347371
0.336068
0.323691
0.310005
0.294692
0.277402
0.257788
0.235968
0.208885
0.401819
0.40839
0.412079
0.418547
0.427337
0.436351
0.444465
0.45122
0.456513
0.460502
0.463364
0.465315
0.46657
0.467309
0.467675
0.46778
0.467707
0.46751
0.467224
0.466867
0.466447
0.465964
0.465408
0.46477
0.464033
0.463186
0.462207
0.461072
0.459771
0.45828
0.456573
0.454633
0.452443
0.449974
0.447204
0.444116
0.440694
0.436911
0.432751
0.428222
0.423304
0.417977
0.412258
0.406114
0.399485
0.392347
0.384654
0.376379
0.367494
0.357894
0.347484
0.336167
0.323784
0.310101
0.294805
0.27755
0.257988
0.236213
0.20894
0.447191
0.425412
0.419646
0.422234
0.42923
0.437306
0.444908
0.451383
0.456533
0.460458
0.463302
0.465258
0.46653
0.467286
0.467668
0.467786
0.467721
0.467529
0.467247
0.466892
0.466475
0.465996
0.465445
0.464815
0.464089
0.463253
0.462288
0.461169
0.459886
0.458414
0.456725
0.454804
0.452632
0.45018
0.447426
0.444353
0.440942
0.437168
0.433014
0.428488
0.42357
0.418239
0.412513
0.406358
0.399715
0.39256
0.384848
0.376553
0.367647
0.358026
0.347599
0.336268
0.323878
0.310198
0.29492
0.277698
0.258186
0.236454
0.208995
0.442688
0.433117
0.424974
0.425254
0.430896
0.438181
0.445324
0.45154
0.456552
0.460414
0.463239
0.4652
0.466487
0.467261
0.46766
0.467791
0.467735
0.46755
0.467272
0.466921
0.466507
0.466032
0.465488
0.464865
0.464149
0.463325
0.462374
0.46127
0.460003
0.458548
0.456877
0.454975
0.45282
0.450384
0.447646
0.444586
0.441187
0.437421
0.433273
0.42875
0.423832
0.418497
0.412764
0.406599
0.399943
0.392772
0.385042
0.376727
0.3678
0.35816
0.347715
0.336371
0.323974
0.310298
0.295036
0.277847
0.258384
0.236693
0.209052
0.394259
0.428206
0.427248
0.42746
0.432318
0.438976
0.445715
0.45169
0.456572
0.460372
0.463177
0.465141
0.466442
0.467235
0.46765
0.467795
0.467749
0.467572
0.467299
0.466952
0.466543
0.466073
0.465535
0.46492
0.464213
0.4634
0.462462
0.461373
0.460122
0.458684
0.45703
0.455144
0.453007
0.450586
0.447863
0.444815
0.441427
0.43767
0.433528
0.429008
0.424089
0.418751
0.413011
0.406837
0.400168
0.392982
0.385234
0.3769
0.367954
0.358294
0.347832
0.336476
0.324073
0.3104
0.295153
0.277997
0.258581
0.236928
0.20911
0.35454
0.422382
0.428137
0.42918
0.433593
0.439731
0.446099
0.451844
0.456597
0.460334
0.463117
0.465083
0.466398
0.467207
0.467639
0.467799
0.467765
0.467595
0.467329
0.466987
0.466583
0.466118
0.465586
0.464979
0.464281
0.46348
0.462554
0.461479
0.460243
0.458821
0.457183
0.455314
0.453192
0.450787
0.448077
0.445042
0.441664
0.437914
0.433778
0.429261
0.424342
0.419001
0.413255
0.407072
0.400391
0.39319
0.385426
0.377073
0.368108
0.35843
0.347952
0.336582
0.324173
0.310503
0.295272
0.278146
0.258777
0.237161
0.209169
0.323513
0.416715
0.428322
0.430623
0.434792
0.440479
0.446494
0.452011
0.456633
0.460304
0.463062
0.465027
0.466354
0.46718
0.467629
0.467802
0.46778
0.46762
0.467361
0.467025
0.466626
0.466167
0.465641
0.465042
0.464354
0.463563
0.462649
0.461588
0.460366
0.458959
0.457337
0.455483
0.453376
0.450985
0.448288
0.445265
0.441896
0.438155
0.434024
0.429509
0.424591
0.419247
0.413495
0.407303
0.400611
0.393397
0.385616
0.377246
0.368263
0.358567
0.348072
0.336691
0.324276
0.310608
0.295393
0.278297
0.258972
0.237391
0.209229
0.299193
0.410759
0.42786
0.431794
0.435923
0.441234
0.446912
0.4522
0.456686
0.460286
0.463015
0.464976
0.466312
0.467153
0.467618
0.467807
0.467797
0.467647
0.467395
0.467066
0.466673
0.46622
0.465701
0.465109
0.46443
0.463649
0.462747
0.461699
0.460491
0.459098
0.45749
0.455651
0.453558
0.451181
0.448497
0.445484
0.442126
0.438392
0.434266
0.429754
0.424835
0.419488
0.413731
0.407532
0.400829
0.393601
0.385805
0.377418
0.368417
0.358704
0.348194
0.336801
0.32438
0.310715
0.295514
0.278448
0.259165
0.237618
0.20929
0.280009
0.404557
0.426837
0.432665
0.436963
0.44199
0.447357
0.452417
0.456762
0.460284
0.462979
0.464932
0.466274
0.467129
0.46761
0.467813
0.467815
0.467675
0.467432
0.46711
0.466723
0.466276
0.465764
0.46518
0.46451
0.463739
0.462848
0.461812
0.460617
0.459238
0.457644
0.455819
0.453739
0.451375
0.448703
0.445701
0.442351
0.438624
0.434504
0.429994
0.425076
0.419726
0.413964
0.407757
0.401044
0.393804
0.385993
0.37759
0.368572
0.358843
0.348318
0.336913
0.324486
0.310824
0.295637
0.278599
0.259359
0.237842
0.209352
0.264716
0.398369
0.425394
0.433239
0.437896
0.442738
0.447828
0.452664
0.456863
0.460301
0.462955
0.464896
0.466242
0.467108
0.467603
0.46782
0.467835
0.467705
0.467471
0.467156
0.466776
0.466336
0.465831
0.465255
0.464593
0.463832
0.462952
0.461927
0.460745
0.459378
0.457798
0.455986
0.45392
0.451567
0.448906
0.445915
0.442573
0.438853
0.434737
0.43023
0.425312
0.419961
0.414194
0.407979
0.401256
0.394004
0.38618
0.377761
0.368727
0.358982
0.348443
0.337026
0.324594
0.310934
0.295761
0.278751
0.259551
0.238063
0.209415
0.252379
0.392366
0.42365
0.433538
0.438708
0.443465
0.448318
0.452941
0.456991
0.460338
0.462947
0.46487
0.466216
0.467091
0.467599
0.467829
0.467857
0.467738
0.467513
0.467206
0.466833
0.466399
0.465901
0.465333
0.46468
0.463928
0.463058
0.462045
0.460874
0.45952
0.457952
0.456153
0.454098
0.451758
0.449107
0.446125
0.442792
0.439078
0.434967
0.430463
0.425545
0.420191
0.41442
0.408198
0.401466
0.394203
0.386365
0.377932
0.368883
0.359121
0.348568
0.337142
0.324704
0.311046
0.295886
0.278903
0.259742
0.238282
0.209479
0.242316
0.386622
0.421684
0.433586
0.439393
0.444159
0.44882
0.453245
0.457146
0.460399
0.462955
0.464856
0.466198
0.467079
0.467598
0.467841
0.467881
0.467773
0.467557
0.467258
0.466892
0.466466
0.465975
0.465414
0.464769
0.464027
0.463167
0.462164
0.461005
0.459662
0.458107
0.456319
0.454276
0.451946
0.449306
0.446333
0.443007
0.4393
0.435193
0.430691
0.425773
0.420418
0.414642
0.408415
0.401674
0.3944
0.386549
0.378102
0.369038
0.359262
0.348695
0.337258
0.324815
0.31116
0.296013
0.279056
0.259932
0.238498
0.209544
0.234023
0.38117
0.41956
0.433408
0.439947
0.444809
0.449327
0.453571
0.457327
0.460481
0.46298
0.464854
0.466188
0.467073
0.467601
0.467856
0.467907
0.46781
0.467603
0.467313
0.466955
0.466536
0.466052
0.465499
0.464862
0.464129
0.463278
0.462286
0.461137
0.459805
0.458261
0.456484
0.454452
0.452133
0.449502
0.446537
0.443219
0.439517
0.435415
0.430915
0.425998
0.420641
0.414861
0.408628
0.401879
0.394595
0.386732
0.378272
0.369193
0.359403
0.348824
0.337376
0.324928
0.311275
0.296141
0.279209
0.260121
0.238712
0.20961
0.227121
0.376024
0.417328
0.433034
0.440373
0.445406
0.44983
0.453915
0.457531
0.460585
0.463023
0.464865
0.466187
0.467073
0.467609
0.467874
0.467936
0.467849
0.467652
0.46737
0.46702
0.466609
0.466132
0.465587
0.464958
0.464233
0.463392
0.462409
0.46127
0.459949
0.458415
0.456649
0.454627
0.452317
0.449695
0.446739
0.443427
0.439731
0.435633
0.431136
0.426219
0.42086
0.415077
0.408838
0.402081
0.394788
0.386914
0.37844
0.369348
0.359545
0.348953
0.337496
0.325043
0.311392
0.29627
0.279362
0.26031
0.238924
0.209677
0.221323
0.371188
0.41503
0.432493
0.440674
0.445945
0.450323
0.454272
0.457756
0.460709
0.463083
0.464889
0.466196
0.46708
0.467621
0.467895
0.467968
0.467891
0.467703
0.467431
0.467088
0.466684
0.466216
0.465677
0.465056
0.46434
0.463507
0.462533
0.461404
0.460093
0.458569
0.456813
0.4548
0.4525
0.449887
0.446938
0.443633
0.439942
0.435847
0.431352
0.426436
0.421076
0.41529
0.409045
0.402282
0.394979
0.387094
0.378608
0.369504
0.359687
0.349083
0.337617
0.325159
0.31151
0.2964
0.279516
0.260497
0.239133
0.209745
0.216406
0.366655
0.412702
0.431813
0.440859
0.446424
0.450798
0.454637
0.457998
0.460852
0.463158
0.464926
0.466214
0.467093
0.467638
0.46792
0.468002
0.467935
0.467757
0.467493
0.467159
0.466763
0.466301
0.465771
0.465157
0.464448
0.463625
0.46266
0.46154
0.460238
0.458723
0.456976
0.454973
0.452681
0.450075
0.447134
0.443835
0.440149
0.436058
0.431565
0.426649
0.421288
0.415499
0.40925
0.402479
0.395168
0.387273
0.378776
0.369659
0.359829
0.349214
0.337739
0.325277
0.31163
0.296531
0.27967
0.260684
0.23934
0.209814
0.212196
0.362411
0.410371
0.431022
0.440939
0.446839
0.45125
0.455003
0.458252
0.461011
0.463248
0.464974
0.466241
0.467113
0.467659
0.467948
0.468039
0.467982
0.467813
0.467558
0.467232
0.466843
0.46639
0.465866
0.465261
0.46456
0.463744
0.462787
0.461676
0.460383
0.458877
0.457138
0.455144
0.45286
0.450262
0.447327
0.444034
0.440353
0.436265
0.431775
0.42686
0.421497
0.415705
0.409452
0.402675
0.395355
0.387451
0.378943
0.369814
0.359973
0.349347
0.337863
0.325396
0.311751
0.296663
0.279824
0.26087
0.239545
0.209884
0.208557
0.358445
0.408064
0.430144
0.440925
0.447194
0.451676
0.455366
0.458515
0.461182
0.463351
0.465033
0.466276
0.467139
0.467685
0.467979
0.468079
0.468031
0.467871
0.467625
0.467307
0.466927
0.46648
0.465964
0.465366
0.464672
0.463864
0.462916
0.461813
0.460528
0.459031
0.4573
0.455313
0.453037
0.450446
0.447517
0.44423
0.440554
0.436469
0.431981
0.427066
0.421703
0.415909
0.409651
0.402868
0.395541
0.387627
0.379109
0.369968
0.360116
0.34948
0.337988
0.325516
0.311874
0.296796
0.279979
0.261055
0.239748
0.209954
0.205377
0.354746
0.405803
0.429204
0.44083
0.447488
0.452071
0.45572
0.458783
0.461363
0.463465
0.465102
0.466319
0.46717
0.467715
0.468014
0.468121
0.468082
0.467932
0.467694
0.467385
0.467012
0.466573
0.466064
0.465473
0.464787
0.463987
0.463046
0.46195
0.460673
0.459184
0.457461
0.455482
0.453212
0.450628
0.447705
0.444423
0.440751
0.43667
0.432183
0.427269
0.421905
0.416109
0.409847
0.403059
0.395724
0.387802
0.379274
0.370123
0.36026
0.349613
0.338113
0.325638
0.311998
0.296931
0.280134
0.261239
0.239948
0.210026
0.202561
0.351307
0.403609
0.428225
0.440664
0.447724
0.452432
0.456061
0.459049
0.461549
0.463586
0.465177
0.466368
0.467207
0.467749
0.468051
0.468165
0.468135
0.467994
0.467765
0.467464
0.467099
0.466668
0.466167
0.465583
0.464904
0.46411
0.463177
0.462089
0.460819
0.459337
0.457621
0.455649
0.453386
0.450808
0.447891
0.444613
0.440945
0.436867
0.432382
0.427469
0.422104
0.416306
0.41004
0.403247
0.395906
0.387976
0.379438
0.370277
0.360404
0.349748
0.338241
0.325762
0.312123
0.297066
0.280289
0.261422
0.240147
0.210098
0.200026
0.348132
0.401503
0.427226
0.440438
0.447903
0.452755
0.456383
0.45931
0.461737
0.463712
0.465259
0.466422
0.467247
0.467786
0.468091
0.468212
0.46819
0.468057
0.467837
0.467545
0.467188
0.466764
0.46627
0.465694
0.465021
0.464235
0.463308
0.462227
0.460964
0.459489
0.45778
0.455814
0.453558
0.450985
0.448073
0.4448
0.441136
0.437061
0.432578
0.427665
0.4223