/*--------------------------------*- C++ -*----------------------------------*\
| =========                 |                                                 |
| \\      /  F ield         | OpenFOAM: The Open Source CFD Toolbox           |
|  \\    /   O peration     | Version:  3.0.1                                 |
|   \\  /    A nd           | Web:      www.OpenFOAM.org                      |
|    \\/     M anipulation  |                                                 |
\*---------------------------------------------------------------------------*/
FoamFile
{
    version     2.0;
    format      ascii;
    class       volScalarField;
    location    "2213";
    object      TS;
}
// * * * * * * * * * * * * * * * * * * * * * * * * * * * * * * * * * * * * * //

dimensions      [1 -3 0 0 0 0 0];

internalField   nonuniform List<scalar> 
14431
(
2.22406e-25
1.69885e-24
1.02441e-23
5.00077e-23
2.02227e-22
5.98288e-22
1.47823e-21
3.28283e-21
6.75708e-21
1.31172e-20
2.43011e-20
4.30209e-20
7.3374e-20
1.2095e-19
1.93189e-19
2.99627e-19
4.52014e-19
6.64235e-19
9.51983e-19
1.33379e-18
1.82613e-18
2.44413e-18
3.20476e-18
4.11339e-18
5.17586e-18
6.38143e-18
7.71825e-18
9.16466e-18
1.06699e-17
1.21919e-17
1.36783e-17
1.50591e-17
1.62728e-17
1.72621e-17
1.7972e-17
1.836e-17
1.84005e-17
1.8086e-17
1.74233e-17
1.64484e-17
1.52095e-17
1.37621e-17
1.21814e-17
1.05329e-17
8.87078e-18
7.25805e-18
5.74741e-18
4.38792e-18
3.21551e-18
2.24309e-18
1.47628e-18
9.06021e-19
5.10143e-19
2.56761e-19
1.11173e-19
3.89393e-20
9.92176e-21
1.52191e-21
5.05073e-23
1.25172e-24
8.76559e-24
4.88915e-23
2.23731e-22
8.35477e-22
2.39728e-21
5.74146e-21
1.25004e-20
2.53398e-20
4.85632e-20
8.89711e-20
1.55977e-19
2.63728e-19
4.31372e-19
6.84236e-19
1.05458e-18
1.58192e-18
2.31272e-18
3.29917e-18
4.60272e-18
6.2774e-18
8.37229e-18
1.09426e-17
1.40042e-17
1.75747e-17
2.1616e-17
2.60869e-17
3.09138e-17
3.59267e-17
4.09847e-17
4.59145e-17
5.04839e-17
5.44896e-17
5.77437e-17
6.00653e-17
6.13158e-17
6.14125e-17
6.03317e-17
5.80981e-17
5.48322e-17
5.06938e-17
4.58675e-17
4.06023e-17
3.51149e-17
2.95839e-17
2.42176e-17
1.91904e-17
1.46644e-17
1.07589e-17
7.51665e-18
4.95675e-18
3.04977e-18
1.7229e-18
8.70983e-19
3.79386e-19
1.33998e-19
3.45528e-20
5.38959e-21
1.8176e-22
4.17704e-24
2.71491e-23
1.40385e-22
5.99944e-22
2.07938e-21
5.68837e-21
1.32615e-20
2.82861e-20
5.63807e-20
1.06501e-19
1.9265e-19
3.3397e-19
5.59043e-19
9.06201e-19
1.42575e-18
2.18132e-18
3.25029e-18
4.72305e-18
6.70041e-18
9.30065e-18
1.26262e-17
1.67691e-17
2.18329e-17
2.78433e-17
3.48296e-17
4.27133e-17
5.14098e-17
6.0773e-17
7.0471e-17
8.02302e-17
8.97161e-17
9.84821e-17
1.06139e-16
1.1233e-16
1.16709e-16
1.19017e-16
1.191e-16
1.16916e-16
1.12518e-16
1.06141e-16
9.80953e-17
8.87364e-17
7.85437e-17
6.79324e-17
5.72448e-17
4.688e-17
3.71714e-17
2.84299e-17
2.08834e-17
1.46136e-17
9.65752e-18
5.95904e-18
3.37928e-18
1.71718e-18
7.53316e-19
2.68747e-19
7.03057e-20
1.11946e-20
3.84767e-22
1.10614e-23
6.76964e-23
3.27617e-22
1.315e-21
4.28002e-21
1.12587e-20
2.56721e-20
5.38028e-20
1.05677e-19
1.97104e-19
3.52577e-19
6.05208e-19
1.00416e-18
1.61484e-18
2.52251e-18
3.8343e-18
5.67972e-18
8.20908e-18
1.1589e-17
1.60143e-17
2.16513e-17
2.86477e-17
3.71698e-17
4.72525e-17
5.89369e-17
7.20844e-17
8.65479e-17
1.02079e-16
1.18123e-16
1.34226e-16
1.49833e-16
1.64211e-16
1.76721e-16
1.86781e-16
1.93831e-16
1.97452e-16
1.97399e-16
1.93615e-16
1.86194e-16
1.75533e-16
1.62144e-16
1.46616e-16
1.29739e-16
1.12193e-16
9.45402e-17
7.74334e-17
6.14174e-17
4.70001e-17
3.45533e-17
2.42086e-17
1.60254e-17
9.91119e-18
5.63841e-18
2.87782e-18
1.27032e-18
4.57226e-19
1.21174e-19
1.96622e-20
6.88226e-22
2.54453e-23
1.48268e-22
6.77082e-22
2.56972e-21
7.93971e-21
2.02366e-20
4.53001e-20
9.35463e-20
1.81461e-19
3.34818e-19
5.93235e-19
1.00976e-18
1.66281e-18
2.65598e-18
4.12353e-18
6.23322e-18
9.1868e-18
1.32171e-17
1.85808e-17
2.55771e-17
3.44579e-17
4.54446e-17
5.87864e-17
7.45259e-17
9.27162e-17
1.1313e-16
1.35531e-16
1.59524e-16
1.84247e-16
2.08996e-16
2.32915e-16
2.54877e-16
2.73911e-16
2.89125e-16
2.99678e-16
3.04937e-16
3.04546e-16
2.98432e-16
2.86755e-16
2.70135e-16
2.49367e-16
2.25358e-16
1.99325e-16
1.72306e-16
1.45158e-16
1.18877e-16
9.42925e-17
7.21745e-17
5.30858e-17
3.72218e-17
2.46691e-17
1.52836e-17
8.7165e-18
4.46479e-18
1.98102e-18
7.18427e-19
1.92551e-19
3.17726e-20
1.13106e-21
5.3078e-23
2.97017e-22
1.28885e-21
4.65598e-21
1.37805e-20
3.42311e-20
7.54532e-20
1.53902e-19
2.95427e-19
5.40172e-19
9.49427e-19
1.60463e-18
2.62567e-18
4.17006e-18
6.44089e-18
9.69074e-18
1.42219e-17
2.03818e-17
2.85511e-17
3.91726e-17
5.2614e-17
6.91958e-17
8.92777e-17
1.12908e-16
1.40149e-16
1.70647e-16
2.04034e-16
2.39708e-16
2.76377e-16
3.12989e-16
3.48272e-16
3.8056e-16
4.08421e-16
4.30553e-16
4.45728e-16
4.53035e-16
4.51974e-16
4.42459e-16
4.24753e-16
3.99794e-16
3.6877e-16
3.3303e-16
2.94373e-16
2.5433e-16
2.1416e-16
1.75325e-16
1.39034e-16
1.06414e-16
7.82796e-17
5.49083e-17
3.64178e-17
2.25898e-17
1.29073e-17
6.62994e-18
2.95401e-18
1.07805e-18
2.91727e-19
4.88507e-20
1.76597e-21
1.03025e-22
5.57056e-22
2.31024e-21
7.9933e-21
2.2832e-20
5.55279e-20
1.20823e-19
2.43926e-19
4.64177e-19
8.42328e-19
1.47064e-18
2.47087e-18
4.02178e-18
6.35696e-18
9.77643e-18
1.46517e-17
2.14258e-17
3.06052e-17
4.2743e-17
5.84803e-17
7.83431e-17
1.02785e-16
1.32315e-16
1.66982e-16
2.06856e-16
2.51396e-16
3.00045e-16
3.51907e-16
4.05086e-16
4.58045e-16
5.08933e-16
5.55338e-16
5.952e-16
6.26654e-16
6.47949e-16
6.57805e-16
6.55536e-16
6.41056e-16
6.14784e-16
5.78111e-16
5.32774e-16
4.80738e-16
4.24607e-16
3.66589e-16
3.0849e-16
2.52407e-16
2.00069e-16
1.53078e-16
1.12588e-16
7.89772e-17
5.23994e-17
3.25273e-17
1.86095e-17
9.57902e-18
4.28212e-18
1.57083e-18
4.28546e-19
7.26852e-20
2.6642e-21
1.90999e-22
9.94253e-22
3.95455e-21
1.31785e-20
3.65526e-20
8.73587e-20
1.88045e-19
3.7645e-19
7.11258e-19
1.2827e-18
2.2272e-18
3.72382e-18
6.03472e-18
9.50112e-18
1.45596e-17
2.1749e-17
3.17092e-17
4.51694e-17
6.29219e-17
8.5883e-17
1.14796e-16
1.50295e-16
1.9309e-16
2.43222e-16
3.00762e-16
3.64898e-16
4.34799e-16
5.09148e-16
5.85204e-16
6.60745e-16
7.33116e-16
7.98873e-16
8.55091e-16
8.99131e-16
9.28538e-16
9.41536e-16
9.37206e-16
9.15481e-16
8.77018e-16
8.23852e-16
7.58492e-16
6.83762e-16
6.03386e-16
5.20498e-16
4.37657e-16
3.57828e-16
2.83444e-16
2.1675e-16
1.59352e-16
1.11754e-16
7.41457e-17
4.60418e-17
2.63628e-17
1.35903e-17
6.09075e-18
2.24363e-18
6.16276e-19
1.05686e-19
3.9217e-21
3.77187e-22
1.71852e-21
6.52676e-21
2.10498e-20
5.69881e-20
1.34267e-19
2.86476e-19
5.69602e-19
1.07002e-18
1.92005e-18
3.31903e-18
5.5274e-18
8.92563e-18
1.40071e-17
2.14013e-17
3.18824e-17
4.63667e-17
6.58948e-17
9.15928e-17
1.24759e-16
1.66436e-16
2.17502e-16
2.7894e-16
3.50766e-16
4.33041e-16
5.24558e-16
6.24092e-16
7.29722e-16
8.37518e-16
9.44301e-16
1.04629e-15
1.13861e-15
1.21714e-15
1.27818e-15
1.31833e-15
1.33515e-15
1.32742e-15
1.29513e-15
1.2393e-15
1.16289e-15
1.06948e-15
9.63107e-16
8.49044e-16
7.31701e-16
6.14674e-16
5.02113e-16
3.97408e-16
3.03673e-16
2.23116e-16
1.56395e-16
1.03734e-16
6.44147e-17
3.68973e-17
1.90397e-17
8.54906e-18
3.1596e-18
8.72771e-19
1.51097e-19
5.66741e-21
1.42653e-21
2.98114e-21
1.04583e-20
3.27597e-20
8.69684e-20
2.02582e-19
4.29225e-19
8.48908e-19
1.58757e-18
2.83759e-18
4.88784e-18
8.11441e-18
1.30656e-17
2.04502e-17
3.117e-17
4.63307e-17
6.72374e-17
9.53665e-17
1.3231e-16
1.79898e-16
2.39582e-16
3.12575e-16
4.00228e-16
5.02507e-16
6.19437e-16
7.49241e-16
8.90119e-16
1.03929e-15
1.19116e-15
1.34119e-15
1.48402e-15
1.61281e-15
1.72178e-15
1.8058e-15
1.86014e-15
1.88149e-15
1.86828e-15
1.82062e-15
1.74005e-15
1.63085e-15
1.49813e-15
1.34761e-15
1.18672e-15
1.02162e-15
8.57328e-16
6.99628e-16
5.53203e-16
4.22343e-16
3.10054e-16
2.17184e-16
1.43978e-16
8.93783e-17
5.1199e-17
2.6434e-17
1.18848e-17
4.40365e-18
1.22202e-18
2.13267e-19
8.07389e-21
7.25755e-19
7.16847e-19
7.07899e-19
6.99259e-19
6.91078e-19
6.8343e-19
6.76343e-19
6.69815e-19
6.63829e-19
6.58325e-19
6.52903e-19
6.4755e-19
6.42254e-19
6.36996e-19
6.31753e-19
6.26491e-19
6.21127e-19
6.14929e-19
5.98496e-19
4.84525e-19
7.3191e-19
7.19043e-19
7.05824e-19
6.93267e-19
6.81721e-19
6.71327e-19
6.62124e-19
6.54099e-19
6.47203e-19
6.41359e-19
6.36057e-19
6.3111e-19
6.26483e-19
6.22131e-19
6.17989e-19
6.13957e-19
6.09832e-19
6.04332e-19
5.82958e-19
4.55636e-19
7.38996e-19
7.21591e-19
7.03608e-19
6.86691e-19
6.71383e-19
6.57893e-19
6.46278e-19
6.36508e-19
6.28499e-19
6.22098e-19
6.1673e-19
6.12057e-19
6.08027e-19
6.04579e-19
6.01625e-19
5.99021e-19
5.96453e-19
5.9208e-19
5.67404e-19
4.32196e-19
7.45873e-19
7.23867e-19
7.00953e-19
6.79484e-19
6.60196e-19
6.43394e-19
6.29191e-19
6.17578e-19
6.08452e-19
6.01599e-19
5.96323e-19
5.92132e-19
5.88902e-19
5.8652e-19
5.84863e-19
5.83761e-19
5.82817e-19
5.79602e-19
5.52098e-19
4.12719e-19
7.52624e-19
7.26042e-19
6.98208e-19
6.72152e-19
6.48764e-19
6.28475e-19
6.11502e-19
5.979e-19
5.87579e-19
5.80273e-19
5.75176e-19
5.71639e-19
5.69438e-19
5.6836e-19
5.68199e-19
5.68726e-19
5.69425e-19
5.67209e-19
5.36768e-19
3.95463e-19
7.59363e-19
7.28356e-19
6.95775e-19
6.65201e-19
6.37648e-19
6.13718e-19
5.93793e-19
5.78051e-19
5.66451e-19
5.58688e-19
5.53839e-19
5.51085e-19
5.50077e-19
5.50474e-19
5.51952e-19
5.54183e-19
5.56484e-19
5.54996e-19
5.21197e-19
3.79559e-19
7.66159e-19
7.31006e-19
6.93982e-19
6.59034e-19
6.27297e-19
5.99599e-19
5.76548e-19
5.58503e-19
5.45528e-19
5.37305e-19
5.32788e-19
5.30948e-19
5.3127e-19
5.3325e-19
5.36429e-19
5.40353e-19
5.44128e-19
5.42979e-19
5.05229e-19
3.64681e-19
7.7306e-19
7.34148e-19
6.93088e-19
6.53982e-19
6.18118e-19
5.86596e-19
5.6028e-19
5.39773e-19
5.25315e-19
5.16619e-19
5.12517e-19
5.1172e-19
5.13477e-19
5.17084e-19
5.21931e-19
5.27435e-19
5.32454e-19
5.31105e-19
4.88754e-19
3.50827e-19
7.801e-19
7.37909e-19
6.933e-19
6.50342e-19
6.10538e-19
5.75265e-19
5.45631e-19
5.22521e-19
5.06452e-19
4.97244e-19
4.93629e-19
4.93973e-19
4.97202e-19
5.02378e-19
5.08746e-19
5.15599e-19
5.21518e-19
5.19238e-19
4.71728e-19
3.3827e-19
7.87307e-19
7.42388e-19
6.94792e-19
6.48417e-19
6.05044e-19
5.66279e-19
5.33412e-19
5.0761e-19
4.89781e-19
4.79981e-19
4.76872e-19
4.78368e-19
4.8298e-19
4.89522e-19
4.9712e-19
5.04968e-19
5.11309e-19
5.07139e-19
4.54239e-19
3.27631e-19
7.94699e-19
7.47665e-19
6.97729e-19
6.48543e-19
6.02198e-19
5.60437e-19
5.2463e-19
4.96167e-19
4.76411e-19
4.65844e-19
4.63117e-19
4.65588e-19
4.71288e-19
4.78813e-19
4.87211e-19
4.95579e-19
5.01718e-19
4.94439e-19
4.36562e-19
3.19666e-19
8.02285e-19
7.53816e-19
7.02285e-19
6.51101e-19
6.02632e-19
5.5865e-19
5.20494e-19
4.89639e-19
4.67809e-19
4.56062e-19
4.53211e-19
4.561e-19
4.62327e-19
4.70297e-19
4.78985e-19
4.87333e-19
4.9247e-19
4.80706e-19
4.19578e-19
3.16877e-19
8.10065e-19
7.60918e-19
7.0867e-19
6.56527e-19
6.07036e-19
5.61902e-19
5.22362e-19
4.89802e-19
4.6595e-19
4.52157e-19
4.47745e-19
4.49802e-19
4.55619e-19
4.63406e-19
4.71988e-19
4.79909e-19
4.8305e-19
4.65757e-19
4.05323e-19
3.24352e-19
8.18456e-19
7.69935e-19
7.18179e-19
6.66338e-19
6.17048e-19
5.71895e-19
5.31936e-19
4.98289e-19
4.7234e-19
4.55439e-19
4.47794e-19
4.47605e-19
4.51786e-19
4.58325e-19
4.65786e-19
4.72345e-19
4.72691e-19
4.50611e-19
3.97786e-19
3.49961e-19
8.28053e-19
7.81465e-19
7.31542e-19
6.81432e-19
6.33755e-19
5.89939e-19
5.50813e-19
5.17104e-19
4.89641e-19
4.69333e-19
4.56846e-19
4.52493e-19
4.53287e-19
4.56971e-19
4.61781e-19
4.65333e-19
4.6182e-19
4.40829e-19
4.0776e-19
4.03883e-19
8.39018e-19
7.959e-19
7.49439e-19
7.02763e-19
6.58377e-19
6.17545e-19
5.80881e-19
5.48755e-19
5.21478e-19
4.99386e-19
4.82905e-19
4.72588e-19
4.68202e-19
4.67131e-19
4.67567e-19
4.67324e-19
4.62878e-19
4.52045e-19
4.4851e-19
5.01752e-19
8.51514e-19
8.13697e-19
7.72676e-19
7.31474e-19
6.92367e-19
6.56461e-19
6.24219e-19
5.95781e-19
5.71125e-19
5.50151e-19
5.32772e-19
5.18993e-19
5.10585e-19
5.05382e-19
5.02187e-19
5.00242e-19
4.99691e-19
5.0531e-19
5.38749e-19
6.64583e-19
8.65698e-19
8.35357e-19
8.02196e-19
7.68923e-19
7.37435e-19
7.08675e-19
6.83025e-19
6.60543e-19
6.41091e-19
6.24417e-19
6.10228e-19
5.98264e-19
5.89762e-19
5.84864e-19
5.82799e-19
5.84464e-19
5.93448e-19
6.20609e-19
6.97486e-19
9.12411e-19
8.81662e-19
8.61375e-19
8.39042e-19
8.16688e-19
7.95653e-19
7.76666e-19
7.60071e-19
7.45963e-19
7.34271e-19
7.2483e-19
7.17441e-19
7.11942e-19
7.08314e-19
7.09271e-19
7.14616e-19
7.26667e-19
7.5172e-19
8.05523e-19
9.29728e-19
1.24548e-18
8.99359e-19
8.92072e-19
8.8414e-19
8.76429e-19
8.69551e-19
8.63921e-19
8.59804e-19
8.57348e-19
8.56629e-19
8.57683e-19
8.60552e-19
8.65351e-19
8.72375e-19
8.83048e-19
9.00652e-19
9.27895e-19
9.72603e-19
1.05295e-18
1.21601e-18
1.61883e-18
9.18292e-19
9.26426e-19
9.3633e-19
9.47011e-19
9.5858e-19
9.71202e-19
9.85044e-19
1.00028e-18
1.0171e-18
1.03572e-18
1.05642e-18
1.07953e-18
1.10551e-18
1.13496e-18
1.17041e-18
1.21643e-18
1.28018e-18
1.37733e-18
1.54933e-18
1.9867e-18
1.52496e-20
5.52133e-21
1.61914e-20
4.94132e-20
1.29268e-19
2.98638e-19
6.29594e-19
1.24049e-18
2.31241e-18
4.12123e-18
7.08024e-18
1.17258e-17
1.88384e-17
2.94244e-17
4.47608e-17
6.64093e-17
9.62074e-17
1.36227e-16
1.88694e-16
2.5616e-16
3.40625e-16
4.43743e-16
5.67347e-16
7.11312e-16
8.75588e-16
1.05759e-15
1.25471e-15
1.46296e-15
1.67445e-15
1.88281e-15
2.08053e-15
2.25807e-15
2.40747e-15
2.52163e-15
2.59413e-15
2.62054e-15
2.59883e-15
2.52933e-15
2.41439e-15
2.2601e-15
2.07367e-15
1.86311e-15
1.63876e-15
1.40915e-15
1.18121e-15
9.62863e-16
7.60527e-16
5.80029e-16
4.25407e-16
2.97727e-16
1.97227e-16
1.22367e-16
7.00774e-17
3.61862e-17
1.62823e-17
6.04411e-18
1.68328e-18
2.9572e-19
1.12993e-20
3.30265e-20
9.7755e-21
2.46529e-20
7.34136e-20
1.89584e-19
4.34757e-19
9.12394e-19
1.79155e-18
3.32993e-18
5.91924e-18
1.01449e-17
1.67642e-17
2.68774e-17
4.18995e-17
6.36208e-17
9.4225e-17
1.36274e-16
1.92647e-16
2.66423e-16
3.61122e-16
4.79472e-16
6.23701e-16
7.96269e-16
9.96887e-16
1.22537e-15
1.47799e-15
1.75101e-15
2.03879e-15
2.33031e-15
2.61669e-15
2.88754e-15
3.12971e-15
3.33231e-15
3.48568e-15
3.58118e-15
3.61291e-15
3.57835e-15
3.4782e-15
3.31594e-15
3.10019e-15
2.84099e-15
2.54943e-15
2.23979e-15
1.92374e-15
1.61071e-15
1.3115e-15
1.03477e-15
7.88354e-16
5.7763e-16
4.03897e-16
2.67351e-16
1.65775e-16
9.49035e-17
4.90077e-17
2.20655e-17
8.20393e-18
2.29215e-18
4.05108e-19
1.55899e-20
5.11145e-20
1.60443e-20
3.7069e-20
1.08093e-19
2.76079e-19
6.29162e-19
1.31533e-18
2.5754e-18
4.77535e-18
8.47018e-18
1.44876e-17
2.38952e-17
3.82417e-17
5.95134e-17
9.02173e-17
1.33403e-16
1.92638e-16
2.71917e-16
3.75493e-16
5.08218e-16
6.73805e-16
8.75244e-16
1.11583e-15
1.39499e-15
1.71232e-15
2.06245e-15
2.44005e-15
2.83714e-15
3.23834e-15
3.63132e-15
4.0017e-15
4.33142e-15
4.60557e-15
4.81107e-15
4.93627e-15
4.97342e-15
4.91939e-15
4.77549e-15
4.54687e-15
4.24565e-15
3.88584e-15
3.48278e-15
3.0561e-15
2.62174e-15
2.19256e-15
1.7832e-15
1.40536e-15
1.06953e-15
7.82848e-16
5.46871e-16
3.61686e-16
2.24117e-16
1.28247e-16
6.622e-17
2.98288e-17
1.11051e-17
3.11155e-18
5.52912e-19
2.14169e-20
6.86085e-20
2.46935e-20
5.51412e-20
1.58053e-19
3.99863e-19
9.06383e-19
1.88871e-18
3.68925e-18
6.82688e-18
1.20869e-17
2.0638e-17
3.39836e-17
5.43012e-17
8.43764e-17
1.27716e-16
1.88576e-16
2.71917e-16
3.83276e-16
5.28524e-16
7.14336e-16
9.45755e-16
1.22679e-15
1.56182e-15
1.94986e-15
2.39007e-15
2.87479e-15
3.39639e-15
3.9436e-15
4.49502e-15
5.03351e-15
5.53923e-15
5.98736e-15
6.35759e-15
6.6322e-15
6.79556e-15
6.83747e-15
6.75417e-15
6.54793e-15
6.2263e-15
5.80634e-15
5.30752e-15
4.75104e-15
4.16387e-15
3.56773e-15
2.98011e-15
2.42086e-15
1.90569e-15
1.44869e-15
1.05925e-15
7.39225e-16
4.88471e-16
3.02455e-16
1.72985e-16
8.93035e-17
4.02394e-17
1.4998e-17
4.21294e-18
7.52329e-19
2.93163e-20
8.50647e-20
3.62919e-20
8.13188e-20
2.299e-19
5.76809e-19
1.30133e-18
2.704e-18
5.27098e-18
9.73709e-18
1.72123e-17
2.93454e-17
4.82519e-17
7.69908e-17
1.19466e-16
1.80579e-16
2.66263e-16
3.83413e-16
5.39695e-16
7.43206e-16
1.00312e-15
1.32626e-15
1.718e-15
2.18415e-15
2.72302e-15
3.33313e-15
4.00351e-15
4.72326e-15
5.47652e-15
6.2335e-15
6.97044e-15
7.65995e-15
8.26804e-15
8.76704e-15
9.133e-15
9.345e-15
9.38973e-15
9.26272e-15
8.96774e-15
8.51588e-15
7.93107e-15
7.24033e-15
6.47292e-15
5.66585e-15
4.84867e-15
4.04512e-15
3.28205e-15
2.58057e-15
1.95949e-15
1.43117e-15
9.97757e-16
6.58697e-16
4.07538e-16
2.32952e-16
1.20229e-16
5.41854e-17
2.02157e-17
5.69161e-18
1.02102e-18
4.00072e-20
1.004e-19
5.17674e-20
1.19165e-19
3.3314e-19
8.29607e-19
1.86373e-18
3.86277e-18
7.51623e-18
1.3864e-17
2.44739e-17
4.16704e-17
6.84284e-17
1.09043e-16
1.68982e-16
2.55093e-16
3.75642e-16
5.40203e-16
7.59386e-16
1.04434e-15
1.40765e-15
1.85858e-15
2.40423e-15
3.05234e-15
3.80009e-15
4.64497e-15
5.5713e-15
6.56357e-15
7.59939e-15
8.63743e-15
9.64474e-15
1.05836e-14
1.14074e-14
1.20786e-14
1.25649e-14
1.28384e-14
1.28818e-14
1.26899e-14
1.22688e-14
1.16348e-14
1.08213e-14
9.86575e-15
8.80858e-15
7.70045e-15
6.58152e-15
5.48395e-15
4.444e-15
3.48996e-15
2.64692e-15
1.93111e-15
1.34488e-15
8.87011e-16
5.48347e-16
3.13246e-16
1.61616e-16
7.28472e-17
2.72014e-17
7.67446e-18
1.38256e-18
5.4454e-20
1.14953e-19
7.2646e-20
1.73884e-19
4.81468e-19
1.19073e-18
2.66446e-18
5.50939e-18
1.07028e-17
1.97153e-17
3.47604e-17
5.91135e-17
9.69567e-17
1.54318e-16
2.3885e-16
3.60118e-16
5.29629e-16
7.60672e-16
1.06791e-15
1.46669e-15
1.97427e-15
2.60315e-15
3.36274e-15
4.26325e-15
5.30014e-15
6.46926e-15
7.74825e-15
9.11501e-15
1.05381e-14
1.196e-14
1.33353e-14
1.46118e-14
1.57262e-14
1.66273e-14
1.72716e-14
1.76221e-14
1.76562e-14
1.73685e-14
1.67685e-14
1.58798e-14
1.47493e-14
1.34288e-14
1.19739e-14
1.0454e-14
8.92346e-15
7.42589e-15
6.01015e-15
4.71412e-15
3.57112e-15
2.60241e-15
1.81045e-15
1.19291e-15
7.36825e-16
4.20638e-16
2.16943e-16
9.77912e-17
3.65434e-17
1.03303e-17
1.86842e-18
7.39478e-20
1.29532e-19
1.01475e-19
2.53024e-19
6.94631e-19
1.70665e-18
3.80452e-18
7.84921e-18
1.5225e-17
2.8011e-17
4.93308e-17
8.37991e-17
1.37292e-16
2.18267e-16
3.37435e-16
5.08144e-16
7.46409e-16
1.07066e-15
1.50117e-15
2.059e-15
2.76782e-15
3.64444e-15
4.70131e-15
5.9518e-15
7.38873e-15
9.00543e-15
1.077e-14
1.26511e-14
1.46043e-14
1.65502e-14
1.84256e-14
2.01591e-14
2.1664e-14
2.28712e-14
2.37222e-14
2.41677e-14
2.4179e-14
2.37504e-14
2.28971e-14
2.16527e-14
2.00831e-14
1.82599e-14
1.62596e-14
1.41768e-14
1.20854e-14
1.00442e-14
8.11897e-15
6.36025e-15
4.8123e-15
3.50286e-15
2.4342e-15
1.60229e-15
9.88829e-16
5.64116e-16
2.90822e-16
1.31095e-16
4.90221e-17
1.38832e-17
2.52049e-18
1.00215e-19
1.45528e-19
1.42227e-19
3.67648e-19
1.00112e-18
2.44392e-18
5.42799e-18
1.11743e-17
2.16429e-17
3.97724e-17
6.99699e-17
1.18735e-16
1.94323e-16
3.08597e-16
4.7654e-16
7.16778e-16
1.05159e-15
1.50652e-15
2.10954e-15
2.88961e-15
3.87906e-15
5.10051e-15
6.57031e-15
8.30589e-15
1.02961e-14
1.25303e-14
1.4963e-14
1.75499e-14
2.02284e-14
2.28886e-14
2.54432e-14
2.77941e-14
2.98231e-14
3.14368e-14
3.25568e-14
3.31181e-14
3.30838e-14
3.24491e-14
3.12372e-14
2.94966e-14
2.73194e-14
2.48045e-14
2.20567e-14
1.92053e-14
1.63504e-14
1.3571e-14
1.09555e-14
8.57147e-15
6.4774e-15
4.70934e-15
3.26897e-15
2.14957e-15
1.32539e-15
7.55586e-16
3.8936e-16
1.75508e-16
6.56712e-17
1.86305e-17
3.39452e-18
1.3556e-19
1.65299e-19
2.00815e-19
5.34017e-19
1.44202e-18
3.49783e-18
7.74028e-18
1.59002e-17
3.07521e-17
5.64489e-17
9.92074e-17
1.68181e-16
2.74966e-16
4.36197e-16
6.72832e-16
1.01085e-15
1.48122e-15
2.11935e-15
2.96381e-15
4.05432e-15
5.43507e-15
7.13636e-15
9.17955e-15
1.15872e-14
1.43421e-14
1.74278e-14
2.07795e-14
2.43341e-14
2.80041e-14
3.16371e-14
3.51128e-14
3.82967e-14
4.10277e-14
4.318e-14
4.46486e-14
4.53478e-14
4.52313e-14
4.42962e-14
4.25775e-14
4.01454e-14
3.7128e-14
3.36618e-14
2.98906e-14
2.59907e-14
2.20971e-14
1.83163e-14
1.47669e-14
1.15386e-14
8.70877e-15
6.32408e-15
4.38488e-15
2.88037e-15
1.77437e-15
1.01081e-15
5.20635e-16
2.34666e-16
8.7858e-17
2.4966e-17
4.56457e-18
1.83056e-19
1.92792e-19
2.86157e-19
7.75883e-19
2.07653e-18
5.00471e-18
1.10342e-17
2.26181e-17
4.36832e-17
8.00975e-17
1.40631e-16
2.38171e-16
3.89008e-16
6.16465e-16
9.49846e-16
1.42538e-15
2.0861e-15
2.98104e-15
4.16337e-15
5.68751e-15
7.61374e-15
9.98257e-15
1.28217e-14
1.61603e-14
1.99718e-14
2.42309e-14
2.88455e-14
3.37261e-14
3.87503e-14
4.37069e-14
4.84303e-14
5.27362e-14
5.64057e-14
5.92694e-14
6.11871e-14
6.20467e-14
6.17898e-14
6.04182e-14
5.79846e-14
5.45894e-14
5.04113e-14
4.56382e-14
4.04671e-14
3.51379e-14
2.98328e-14
2.46947e-14
1.98827e-14
1.55157e-14
1.16957e-14
8.48284e-15
5.87493e-15
3.85511e-15
2.37263e-15
1.35061e-15
6.9532e-16
3.13374e-16
1.17389e-16
3.34107e-17
6.12887e-18
2.46796e-19
2.33594e-19
4.11608e-19
1.12782e-18
2.98978e-18
7.15945e-18
1.57273e-17
3.21691e-17
6.20427e-17
1.13639e-16
1.99329e-16
3.37261e-16
5.50312e-16
8.7118e-16
1.34084e-15
2.00978e-15
2.93781e-15
4.19276e-15
5.84786e-15
7.97763e-15
1.06642e-14
1.39615e-14
1.79053e-14
2.25326e-14
2.78034e-14
3.36786e-14
4.00277e-14
4.67241e-14
5.35958e-14
6.03514e-14
6.67629e-14
7.25778e-14
7.74995e-14
8.12999e-14
8.37927e-14
8.48315e-14
8.43441e-14
8.23405e-14
7.88994e-14
7.41644e-14
6.83839e-14
6.18168e-14
5.47322e-14
4.74565e-14
4.0235e-14
3.32594e-14
2.67421e-14
2.08408e-14
1.56896e-14
1.13657e-14
7.86233e-15
5.15371e-15
3.16887e-15
1.8025e-15
9.27492e-16
4.17965e-16
1.56648e-16
4.46529e-17
8.21758e-18
3.3222e-19
2.9575e-19
5.96934e-19
1.63991e-18
4.30385e-18
1.02404e-17
2.24141e-17
4.57503e-17
8.81147e-17
1.61223e-16
2.82526e-16
4.77578e-16
7.78512e-16
1.23116e-15
1.8928e-15
2.8338e-15
4.13723e-15
5.89688e-15
8.21355e-15
1.11891e-14
1.49353e-14
1.95237e-14
2.5e-14
3.14111e-14
3.86962e-14
4.67963e-14
5.55262e-14
6.47067e-14
7.40972e-14
8.32952e-14
9.19873e-14
9.98286e-14
1.06417e-13
1.11447e-13
1.14671e-13
1.15898e-13
1.15042e-13
1.12126e-13
1.07267e-13
1.0067e-13
9.26795e-14
8.36516e-14
7.3954e-14
6.40298e-14
5.42086e-14
4.47474e-14
3.59294e-14
2.7963e-14
2.1024e-14
1.5211e-14
1.051e-14
6.8818e-15
4.22738e-15
2.40273e-15
1.23571e-15
5.56785e-16
2.08776e-16
5.96008e-17
1.10029e-17
4.46559e-19
3.91527e-19
8.71053e-19
2.38424e-18
6.19335e-18
1.46445e-17
3.19421e-17
6.50655e-17
1.25148e-16
2.28746e-16
4.00479e-16
6.76335e-16
1.10144e-15
1.74005e-15
2.67221e-15
3.99598e-15
5.82665e-15
8.2939e-15
1.15363e-14
1.5693e-14
2.09158e-14
2.72992e-14
3.49013e-14
4.37801e-14
5.38446e-14
6.5006e-14
7.70014e-14
8.9578e-14
1.02399e-13
1.14909e-13
1.26679e-13
1.37236e-13
1.46038e-13
1.52675e-13
1.56821e-13
1.58229e-13
1.56794e-13
1.52565e-13
1.45713e-13
1.36529e-13
1.25493e-13
1.13093e-13
9.98296e-14
8.63048e-14
7.29608e-14
6.01405e-14
4.82216e-14
3.74784e-14
2.8141e-14
2.03345e-14
1.40333e-14
9.17874e-15
5.63289e-15
3.19906e-15
1.64437e-15
7.40812e-16
2.77906e-16
7.94511e-17
1.47124e-17
5.99395e-19
5.39045e-19
1.27559e-18
3.46372e-18
8.90718e-18
2.09375e-17
4.55183e-17
9.25408e-17
1.77766e-16
3.24594e-16
5.67765e-16
9.57964e-16
1.55857e-15
2.45967e-15
3.77311e-15
5.6355e-15
8.20683e-15
1.16662e-14
1.62041e-14
2.20102e-14
2.92905e-14
3.81693e-14
4.8719e-14
6.10109e-14
7.49088e-14
9.02799e-14
1.06752e-13
1.23967e-13
1.41456e-13
1.58453e-13
1.74369e-13
1.8856e-13
2.00294e-13
2.09024e-13
2.1432e-13
2.15865e-13
2.13537e-13
2.07422e-13
1.97772e-13
1.85e-13
1.69771e-13
1.52752e-13
1.34629e-13
1.16213e-13
9.80996e-14
8.07445e-14
6.465e-14
5.01771e-14
3.76255e-14
2.71533e-14
1.87165e-14
1.22282e-14
7.49695e-15
4.2543e-15
2.18559e-15
9.84472e-16
3.69472e-16
1.05779e-16
1.96463e-17
8.03417e-19
7.64031e-19
1.86911e-18
5.02402e-18
1.27992e-17
2.99255e-17
6.48631e-17
1.31633e-16
2.52553e-16
4.60703e-16
8.05115e-16
1.35718e-15
2.20594e-15
3.47766e-15
5.32867e-15
7.94919e-15
1.15612e-14
1.6412e-14
2.27629e-14
3.08724e-14
4.10193e-14
5.33665e-14
6.80027e-14
8.50137e-14
1.04197e-13
1.25353e-13
1.47957e-13
1.71504e-13
1.95338e-13
2.18407e-13
2.399e-13
2.58944e-13
2.74551e-13
2.85995e-13
2.92708e-13
2.94288e-13
2.90597e-13
2.81781e-13
2.68209e-13
2.50463e-13
2.29464e-13
2.06127e-13
1.81383e-13
1.56331e-13
1.31765e-13
1.08294e-13
8.6583e-14
6.71055e-14
5.0251e-14
3.62178e-14
2.4934e-14
1.6272e-14
9.96623e-15
5.65094e-15
2.90146e-15
1.30669e-15
4.90605e-16
1.40653e-16
2.62002e-17
1.07542e-18
1.10021e-18
2.73145e-18
7.26965e-18
1.83722e-17
4.27575e-17
9.24313e-17
1.87275e-16
3.58897e-16
6.5408e-16
1.14204e-15
1.92336e-15
3.12314e-15
4.91839e-15
7.52757e-15
1.12155e-14
1.62901e-14
2.30926e-14
3.19812e-14
4.33076e-14
5.74485e-14
7.46159e-14
9.49163e-14
1.1845e-13
1.44916e-13
1.7402e-13
2.05018e-13
2.372e-13
2.69651e-13
3.00923e-13
3.29908e-13
3.55421e-13
3.7613e-13
3.91072e-13
3.99506e-13
4.00922e-13
3.95173e-13
3.82498e-13
3.63431e-13
3.38797e-13
3.09868e-13
2.77894e-13
2.44139e-13
2.1009e-13
1.76804e-13
1.45092e-13
1.15833e-13
8.96472e-14
6.70386e-14
4.82539e-14
3.3179e-14
2.16281e-14
1.32333e-14
7.49721e-15
3.84723e-15
1.73229e-15
6.50653e-16
1.8679e-16
3.48944e-17
1.43756e-18
1.58474e-18
3.96698e-18
1.04865e-17
2.63414e-17
6.10753e-17
1.31732e-16
2.66512e-16
5.102e-16
9.28977e-16
1.62058e-15
2.72679e-15
4.42334e-15
6.95846e-15
1.06374e-14
1.58289e-14
2.29596e-14
3.25001e-14
4.49414e-14
6.07608e-14
8.04664e-14
1.04332e-13
1.32482e-13
1.65028e-13
2.01526e-13
2.41543e-13
2.84022e-13
3.27972e-13
3.72112e-13
4.14455e-13
4.53488e-13
4.87602e-13
5.1501e-13
5.34437e-13
5.4492e-13
5.45816e-13
5.36986e-13
5.1881e-13
4.92057e-13
4.57892e-13
4.18069e-13
3.74298e-13
3.28291e-13
2.82054e-13
2.36996e-13
1.9419e-13
1.54799e-13
1.1963e-13
8.93353e-14
6.42174e-14
4.40999e-14
2.87138e-14
1.75509e-14
9.93493e-15
5.09517e-15
2.29372e-15
8.61854e-16
2.47749e-16
4.64132e-17
1.9191e-18
2.24399e-18
5.70607e-18
1.50774e-17
3.77322e-17
8.72346e-17
1.87792e-16
3.79426e-16
7.2562e-16
1.32003e-15
2.30073e-15
3.86759e-15
6.26762e-15
9.84888e-15
1.50379e-14
2.2348e-14
3.23703e-14
4.57535e-14
6.31693e-14
8.52646e-14
1.12724e-13
1.45897e-13
1.84923e-13
2.29919e-13
2.8023e-13
3.35219e-13
3.93396e-13
4.53366e-13
5.13346e-13
5.70611e-13
6.23095e-13
6.6862e-13
7.04792e-13
7.29931e-13
7.42787e-13
7.42566e-13
7.29157e-13
7.03152e-13
6.65661e-13
6.1832e-13
5.63549e-13
5.03677e-13
4.41025e-13
3.78293e-13
3.17356e-13
2.59631e-13
2.06651e-13
1.59467e-13
1.18915e-13
8.53654e-14
5.85483e-14
3.80767e-14
2.32497e-14
1.31496e-14
6.73983e-15
3.03343e-15
1.14021e-15
3.28191e-16
6.16538e-17
2.55855e-18
3.07469e-18
8.11087e-18
2.16255e-17
5.40316e-17
1.24632e-16
2.67838e-16
5.40476e-16
1.03258e-15
1.87676e-15
3.26817e-15
5.48865e-15
8.88548e-15
1.39468e-14
2.12687e-14
3.15655e-14
4.56562e-14
6.44338e-14
8.88166e-14
1.1968e-13
1.57942e-13
2.04047e-13
2.58141e-13
3.2033e-13
3.89653e-13
4.65176e-13
5.44797e-13
6.26557e-13
7.07978e-13
7.85324e-13
8.55783e-13
9.16409e-13
9.64003e-13
9.96358e-13
1.01187e-12
1.00955e-12
9.89381e-13
9.52259e-13
8.99781e-13
8.34242e-13
7.58973e-13
6.77146e-13
5.919e-13
5.06864e-13
4.24529e-13
3.4676e-13
2.75576e-13
2.12337e-13
1.58113e-13
1.13349e-13
7.76409e-14
5.04338e-14
3.07627e-14
1.73839e-14
8.90464e-15
4.00683e-15
1.5066e-15
4.34205e-16
8.17925e-17
3.40658e-18
3.9945e-18
1.14758e-17
3.10162e-17
7.74249e-17
1.78191e-16
3.82277e-16
7.7043e-16
1.47041e-15
2.67009e-15
4.64541e-15
7.79405e-15
1.26043e-14
1.97611e-14
3.00974e-14
4.4607e-14
6.4424e-14
9.07775e-14
1.24921e-13
1.68036e-13
2.21353e-13
2.85426e-13
3.6039e-13
4.46315e-13
5.41795e-13
6.45463e-13
7.54355e-13
8.65727e-13
9.76137e-13
1.08047e-12
1.1749e-12
1.25545e-12
1.31787e-12
1.35926e-12
1.37756e-12
1.37161e-12
1.3415e-12
1.28863e-12
1.21525e-12
1.1246e-12
1.02125e-12
9.09513e-13
7.93624e-13
6.78458e-13
5.67313e-13
4.62643e-13
3.67095e-13
2.82425e-13
2.09996e-13
1.50335e-13
1.02841e-13
6.67231e-14
4.06554e-14
2.29541e-14
1.17506e-14
5.28612e-15
1.98828e-15
5.73741e-16
1.08368e-16
4.52977e-18
5.25804e-18
1.64069e-17
4.46985e-17
1.11131e-16
2.55054e-16
5.46139e-16
1.09919e-15
2.09564e-15
3.80182e-15
6.60815e-15
1.1076e-14
1.78925e-14
2.80185e-14
4.26183e-14
6.3075e-14
9.09579e-14
1.27957e-13
1.75782e-13
2.36025e-13
3.10327e-13
3.99372e-13
5.03249e-13
6.21944e-13
7.53406e-13
8.9564e-13
1.04447e-12
1.19606e-12
1.34563e-12
1.48618e-12
1.61253e-12
1.71932e-12
1.80089e-12
1.85347e-12
1.87444e-12
1.86244e-12
1.81782e-12
1.74265e-12
1.64018e-12
1.5149e-12
1.3731e-12
1.22062e-12
1.0632e-12
9.0735e-13
7.57438e-13
6.16681e-13
4.88545e-13
3.75285e-13
2.7863e-13
1.99191e-13
1.36083e-13
8.81834e-14
5.36739e-14
3.02777e-14
1.54899e-14
6.96652e-15
2.62116e-15
7.573e-16
1.43418e-16
6.01504e-18
7.17205e-18
2.36379e-17
6.45086e-17
1.5978e-16
3.65556e-16
7.81102e-16
1.56979e-15
2.98949e-15
5.41803e-15
9.40819e-15
1.57529e-14
2.54193e-14
3.97563e-14
6.03912e-14
8.92485e-14
1.285e-13
1.80467e-13
2.47477e-13
3.31671e-13
4.35233e-13
5.58985e-13
7.02913e-13
8.66844e-13
1.04779e-12
1.24284e-12
1.44613e-12
1.65229e-12
1.85469e-12
2.04379e-12
2.21254e-12
2.35377e-12
2.45994e-12
2.5262e-12
2.54924e-12
2.52749e-12
2.46175e-12
2.35509e-12
2.21213e-12
2.03913e-12
1.84471e-12
1.63681e-12
1.42313e-12
1.21239e-12
1.01036e-12
8.21238e-13
6.49551e-13
4.98187e-13
3.69327e-13
2.63656e-13
1.79883e-13
1.16424e-13
7.07863e-14
3.98951e-14
2.03971e-14
9.17104e-15
3.45166e-15
9.98448e-16
1.89581e-16
7.97955e-18
9.93526e-18
3.40293e-17
9.31378e-17
2.30033e-16
5.2462e-16
1.11847e-15
2.24432e-15
4.26895e-15
7.72882e-15
1.34072e-14
2.24247e-14
3.61432e-14
5.64569e-14
8.5641e-14
1.26372e-13
1.81654e-13
2.54674e-13
3.48596e-13
4.66288e-13
6.10645e-13
7.82628e-13
9.8202e-13
1.20836e-12
1.4573e-12
1.72464e-12
2.0021e-12
2.28221e-12
2.55577e-12
2.80978e-12
3.03472e-12
3.22096e-12
3.35854e-12
3.4412e-12
3.46484e-12
3.42774e-12
3.33138e-12
3.18032e-12
2.98108e-12
2.74239e-12
2.47607e-12
2.19284e-12
1.90304e-12
1.61835e-12
1.34633e-12
1.09248e-12
8.62669e-13
6.60595e-13
4.88985e-13
3.48576e-13
2.37499e-13
1.53524e-13
9.32405e-14
5.25024e-14
2.68253e-14
1.20579e-14
4.53942e-15
1.31465e-15
2.50259e-16
1.05708e-17
1.38982e-17
4.89237e-17
1.34459e-16
3.31486e-16
7.53814e-16
1.6035e-15
3.2124e-15
6.10276e-15
1.10369e-14
1.91255e-14
3.19537e-14
5.14398e-14
8.02451e-14
1.2155e-13
1.79079e-13
2.56982e-13
3.59631e-13
4.91319e-13
6.55877e-13
8.57125e-13
1.09614e-12
1.37233e-12
1.68476e-12
2.0271e-12
2.39328e-12