/*--------------------------------*- C++ -*----------------------------------*\
| =========                 |                                                 |
| \\      /  F ield         | OpenFOAM: The Open Source CFD Toolbox           |
|  \\    /   O peration     | Version:  3.0.1                                 |
|   \\  /    A nd           | Web:      www.OpenFOAM.org                      |
|    \\/     M anipulation  |                                                 |
\*---------------------------------------------------------------------------*/
FoamFile
{
    version     2.0;
    format      ascii;
    class       volScalarField;
    location    "2629";
    object      epsilon;
}
// * * * * * * * * * * * * * * * * * * * * * * * * * * * * * * * * * * * * * //

dimensions      [0 2 -3 0 0 0 0];

internalField   nonuniform List<scalar> 
14431
(
35.7015
14.8745
8.92745
6.37122
4.94198
4.05051
3.42288
2.95618
2.5989
2.31557
2.08576
1.89644
1.73716
1.60135
1.4842
1.38215
1.29246
1.21303
1.14221
1.0784
1.02088
0.96876
0.921126
0.877611
0.837539
0.800684
0.766526
0.734673
0.705136
0.677565
0.651677
0.627422
0.604652
0.583159
0.562844
0.543618
0.5254
0.508056
0.491533
0.475832
0.460848
0.446492
0.432779
0.419587
0.406784
0.394333
0.382174
0.370289
0.358669
0.347218
0.335896
0.324674
0.31349
0.30224
0.290784
0.278927
0.266302
0.252039
0.228379
29.7647
14.5764
8.85065
6.32418
4.91391
4.04263
3.42458
2.96166
2.60505
2.32111
2.09046
1.90026
1.74021
1.60376
1.48611
1.38366
1.29368
1.21405
1.14308
1.07918
1.02161
0.969467
0.921836
0.878341
0.8383
0.80149
0.767378
0.735576
0.706091
0.678569
0.652726
0.628513
0.605776
0.584307
0.564007
0.544784
0.526558
0.509194
0.49264
0.476898
0.46186
0.447443
0.43366
0.420393
0.407509
0.394975
0.382731
0.370764
0.359065
0.34754
0.336151
0.324869
0.313636
0.302347
0.290861
0.278983
0.266341
0.252039
0.228263
25.6355
14.1817
8.77058
6.28357
4.8946
4.03585
3.42531
2.96631
2.61073
2.32647
2.09509
1.90407
1.74327
1.60619
1.48804
1.3852
1.29492
1.21508
1.14397
1.07996
1.02234
0.970171
0.922541
0.879064
0.839055
0.802287
0.768221
0.736471
0.707037
0.679565
0.653768
0.629596
0.606892
0.585449
0.565164
0.545946
0.527713
0.510331
0.493746
0.477962
0.462873
0.448394
0.434543
0.4212
0.408236
0.395619
0.383291
0.371241
0.359462
0.347862
0.336406
0.325065
0.313783
0.302454
0.290938
0.279038
0.266379
0.25204
0.228147
22.6871
13.7342
8.68495
6.2497
4.88145
4.03044
3.42575
2.97033
2.61596
2.33162
2.09962
1.90785
1.74634
1.60865
1.48999
1.38676
1.29619
1.21612
1.14486
1.08075
1.02308
0.970877
0.923244
0.879784
0.839805
0.803078
0.769057
0.737357
0.707976
0.680553
0.654803
0.630672
0.608002
0.586584
0.566315
0.547103
0.528864
0.511463
0.494849
0.479024
0.463884
0.449344
0.435425
0.422007
0.408964
0.396264
0.383852
0.371719
0.359861
0.348186
0.336662
0.325262
0.31393
0.302561
0.291015
0.279093
0.266417
0.252042
0.228033
20.526
13.2718
8.59469
6.22163
4.8728
4.0266
3.42629
2.97392
2.62081
2.33653
2.10404
1.9116
1.74941
1.61111
1.49196
1.38834
1.29747
1.21718
1.14576
1.08155
1.02382
0.971586
0.923948
0.880503
0.840551
0.803863
0.769888
0.738238
0.708907
0.681533
0.655829
0.63174
0.609104
0.587713
0.56746
0.548253
0.530009
0.51259
0.495948
0.480083
0.464892
0.450293
0.436307
0.422815
0.409693
0.396911
0.384415
0.3722
0.360261
0.348513
0.33692
0.325461
0.314078
0.302669
0.291093
0.279149
0.266454
0.252045
0.22792
18.9012
12.8198
8.5021
6.19835
4.86753
4.02434
3.42717
2.97724
2.62531
2.3412
2.10832
1.91528
1.75246
1.61359
1.49395
1.38994
1.29877
1.21826
1.14669
1.08237
1.02456
0.9723
0.924655
0.881222
0.841297
0.804646
0.770714
0.739113
0.709832
0.682507
0.656849
0.6328
0.610199
0.588833
0.568597
0.549396
0.531147
0.513712
0.497042
0.481138
0.465898
0.45124
0.437187
0.423623
0.410422
0.397558
0.384979
0.372682
0.360664
0.34884
0.33718
0.325661
0.314227
0.302777
0.29117
0.279205
0.266492
0.252048
0.227808
17.6487
12.3943
8.40968
6.17894
4.86484
4.02355
3.42848
2.98039
2.6295
2.34562
2.11245
1.91888
1.75547
1.61606
1.49595
1.39156
1.3001
1.21936
1.14762
1.08319
1.02532
0.973023
0.925367
0.881943
0.842043
0.805427
0.771538
0.739984
0.710751
0.683474
0.657861
0.633853
0.611285
0.589945
0.569726
0.550532
0.532278
0.514828
0.49813
0.482188
0.4669
0.452184
0.438065
0.424429
0.411151
0.398206
0.385545
0.373165
0.361069
0.34917
0.337442
0.325862
0.314378
0.302887
0.291249
0.27926
0.266529
0.252052
0.227698
16.6556
12.0068
8.31981
6.16257
4.86403
4.02401
3.4302
2.98342
2.6334
2.34979
2.11641
1.92238
1.75844
1.61851
1.49796
1.3932
1.30144
1.22048
1.14858
1.08404
1.02609
0.973754
0.926086
0.882669
0.84279
0.806208
0.772359
0.74085
0.711665
0.684435
0.658866
0.634897
0.612363
0.591049
0.570846
0.551659
0.533401
0.515935
0.499211
0.483232
0.467896
0.453124
0.438941
0.425233
0.411878
0.398854
0.386111
0.37365
0.361475
0.349502
0.337706
0.326066
0.31453
0.302998
0.291328
0.279317
0.266566
0.252056
0.227588
15.8403
11.6676
8.2343
6.14831
4.86443
4.02538
3.43224
2.98634
2.63703
2.35368
2.12016
1.92575
1.76135
1.62094
1.49996
1.39484
1.3028
1.22162
1.14955
1.08489
1.02688
0.974496
0.926811
0.883399
0.84354
0.806989
0.773179
0.741714
0.712574
0.685389
0.659863
0.635934
0.613432
0.592143
0.571957
0.552776
0.534514
0.517034
0.500284
0.484268
0.468886
0.454058
0.439812
0.426035
0.412605
0.399501
0.386678
0.374136
0.361883
0.349836
0.337971
0.326271
0.314684
0.30311
0.291408
0.279373
0.266602
0.252061
0.22748
15.2193
11.3783
8.15412
6.13507
4.86522
4.02724
3.43441
2.98909
2.64036
2.35729
2.1237
1.92899
1.76417
1.62333
1.50195
1.39649
1.30417
1.22277
1.15054
1.08577
1.02767
0.975247
0.927544
0.884134
0.844293
0.80777
0.773996
0.742573
0.713477
0.686336
0.660853
0.636961
0.614491
0.593227
0.573057
0.553882
0.535617
0.518123
0.501347
0.485297
0.469869
0.454987
0.440678
0.426833
0.413328
0.400147
0.387244
0.374623
0.362292
0.350171
0.338238
0.326478
0.314839
0.303223
0.291488
0.27943
0.266639
0.252065
0.227372
0.241187
0.287301
0.337826
0.387005
0.432735
0.474915
0.514096
0.550772
0.585118
0.61665
0.64053
0.655027
0.658357
0.648738
0.624573
0.584811
0.529729
0.464891
0.443562
1.47437
0.387619
0.318262
0.293734
0.273105
0.253184
0.234384
0.217373
0.202657
0.190553
0.181581
0.180922
0.18655
0.196549
0.208745
0.22058
0.229077
0.23106
0.229465
0.363157
2.70784
0.536426
0.374472
0.319935
0.284399
0.254941
0.228774
0.205392
0.184797
0.16702
0.152067
0.140787
0.133791
0.131429
0.133691
0.140007
0.149131
0.159463
0.178933
0.422016
3.43414
0.663407
0.403152
0.324649
0.281066
0.248379
0.220696
0.196565
0.175662
0.157847
0.142945
0.130801
0.121521
0.115485
0.113175
0.115001
0.121093
0.131601
0.160344
0.488757
3.86776
0.769464
0.41658
0.321454
0.274242
0.240386
0.211937
0.187213
0.165996
0.148213
0.133645
0.121916
0.112765
0.106248
0.10268
0.102599
0.106662
0.116286
0.152025
0.558097
4.1523
0.856148
0.420574
0.316634
0.269292
0.23511
0.205486
0.1793
0.15688
0.138431
0.123761
0.112354
0.103683
0.0975192
0.0939102
0.0932434
0.0962838
0.105443
0.149136
0.635662
4.3747
0.925231
0.419685
0.314525
0.269386
0.234693
0.202759
0.17374
0.148884
0.128871
0.113568
0.102235
0.0940369
0.0884559
0.0852691
0.0846521
0.0873439
0.0967643
0.150925
0.727898
4.57961
0.978606
0.417627
0.317924
0.275957
0.239752
0.203952
0.170476
0.141778
0.119224
0.102803
0.0914465
0.0838386
0.0790657
0.0765994
0.0764076
0.0792234
0.0897401
0.158255
0.841716
4.79035
1.0182
0.417528
0.328542
0.289499
0.250381
0.20911
0.16954
0.135489
0.109287
0.0912491
0.0799128
0.0731973
0.0695675
0.0681146
0.0686285
0.0719489
0.0845688
0.173222
0.985365
5.01999
1.0459
0.42214
0.347394
0.310179
0.266827
0.218798
0.171705
0.130731
0.0995299
0.0791818
0.0679445
0.0625377
0.0604189
0.0602234
0.0616387
0.0658082
0.0819106
0.199538
1.1692
5.27769
1.06355
0.43406
0.375124
0.338304
0.289948
0.234542
0.178996
0.129635
0.0917273
0.0678718
0.056571
0.052788
0.0523679
0.05349
0.055879
0.0612739
0.0830406
0.243736
1.40871
5.58981
1.07299
0.455991
0.412264
0.374685
0.321509
0.259148
0.195161
0.136536
0.0900716
0.0606071
0.0480537
0.0455383
0.0464549
0.0486274
0.0519285
0.0591232
0.0904845
0.317285
1.72178
5.96085
1.07616
0.49107
0.459453
0.420911
0.364405
0.296974
0.226137
0.158974
0.103146
0.065422
0.0476917
0.0435795
0.0442562
0.0467782
0.0509722
0.0613291
0.110043
0.440984
2.13321
6.3532
1.07498
0.539052
0.518498
0.481388
0.424849
0.355744
0.280844
0.206438
0.139955
0.0895261
0.0608476
0.051876
0.050308
0.0523957
0.0583321
0.0758779
0.159006
0.665385
2.71369
6.68042
1.06921
0.597542
0.59224
0.561117
0.51001
0.445303
0.372432
0.295913
0.221388
0.156304
0.109251
0.0899368
0.0832129
0.0847772
0.0977915
0.143102
0.325885
1.09278
3.335
6.98009
1.05738
0.668061
0.684184
0.665927
0.628676
0.578411
0.519142
0.453264
0.383797
0.315724
0.257191
0.220415
0.208782
0.215687
0.253118
0.366595
0.708882
1.7044
3.98914
7.32048
1.03662
0.752003
0.797942
0.802126
0.790424
0.769046
0.741208
0.707811
0.669613
0.628505
0.588803
0.558658
0.562479
0.597494
0.686733
0.89537
1.38721
2.5189
4.76137
7.84514
1.00235
0.849766
0.936722
0.975966
1.00427
1.02919
1.05434
1.0804
1.10712
1.13447
1.16364
1.19852
1.25951
1.36595
1.54188
1.85879
2.4739
3.69213
5.90677
8.87416
0.94916
0.959969
1.10464
1.19688
1.28257
1.37192
1.47049
1.58068
1.70347
1.83928
1.98892
2.15492
2.34298
2.59288
2.92767
3.41742
4.21123
5.58824
7.9438
11.1397
0.874047
1.08572
1.32505
1.511
1.69073
1.8776
2.07984
2.3036
2.55433
2.83672
3.15544
3.51666
3.93088
4.42659
5.05829
5.88497
7.06018
8.8884
11.9155
16.6376
0.820352
1.33548
1.84196
2.32661
2.81183
3.31689
3.84782
4.40868
5.01371
5.6812
6.43519
7.30881
8.3503
9.63502
11.2694
13.4171
16.3747
20.7117
27.7479
42.5322
14.1935
11.1438
8.08242
6.12196
4.86554
4.02904
3.43646
2.99153
2.64329
2.3605
2.1269
1.93197
1.76681
1.62561
1.50387
1.39809
1.3055
1.2239
1.15152
1.08663
1.02846
0.975989
0.928266
0.884855
0.845028
0.808531
0.774791
0.743407
0.714352
0.687252
0.661808
0.637951
0.615512
0.594271
0.574116
0.554948
0.536679
0.519171
0.502372
0.486288
0.470817
0.455883
0.441515
0.427604
0.414029
0.400774
0.387793
0.375095
0.36269
0.350498
0.3385
0.32668
0.314992
0.303334
0.291568
0.279486
0.266674
0.25207
0.227271
13.5577
10.9386
8.0156
6.10705
4.86459
4.03036
3.43822
2.99366
2.64588
2.3634
2.12986
1.93477
1.76934
1.6278
1.50574
1.39967
1.30683
1.22503
1.15249
1.08749
1.02925
0.976731
0.928986
0.885572
0.845757
0.809284
0.775575
0.744226
0.71521
0.688149
0.662742
0.638919
0.616508
0.595289
0.575149
0.555987
0.537715
0.520194
0.503372
0.487255
0.471743
0.456758
0.442334
0.428359
0.414716
0.401388
0.388333
0.375561
0.363083
0.350822
0.338759
0.326882
0.315143
0.303445
0.291647
0.279541
0.266709
0.252074
0.227172
13.0438
10.7424
7.95065
6.08907
4.86166
4.03083
3.43952
2.99545
2.64815
2.36602
2.13259
1.93742
1.77176
1.62994
1.50758
1.40124
1.30817
1.22617
1.15348
1.08837
1.03005
0.977487
0.929717
0.886298
0.846493
0.81004
0.77636
0.745046
0.716067
0.689043
0.663672
0.639881
0.617498
0.5963
0.576174
0.557018
0.538742
0.521209
0.504364
0.488215
0.472663
0.457629
0.443149
0.429112
0.415401
0.402002
0.388874
0.376028
0.363478
0.351147
0.33902
0.327085
0.315297
0.303557
0.291727
0.279597
0.266744
0.252078
0.227073
12.5899
10.5548
7.88493
6.0674
4.85634
4.03015
3.44022
2.99682
2.65009
2.36835
2.13511
1.93992
1.77409
1.63203
1.5094
1.4028
1.30951
1.22732
1.15449
1.08927
1.03087
0.978255
0.930459
0.887033
0.847236
0.810802
0.777149
0.745867
0.716923
0.689934
0.664598
0.640838
0.618482
0.597304
0.577191
0.55804
0.539762
0.522215
0.505349
0.489169
0.473576
0.458495
0.443959
0.429862
0.416085
0.402616
0.389415
0.376496
0.363874
0.351475
0.339284
0.327291
0.315453
0.303672
0.291808
0.279654
0.266779
0.252083
0.226975
12.1817
10.3763
7.81682
6.04194
4.8485
4.02816
3.44024
2.99776
2.65168
2.37041
2.13741
1.94225
1.77631
1.63405
1.51119
1.40435
1.31085
1.22849
1.15551
1.09018
1.0317
0.979036
0.931213
0.887778
0.847986
0.811569
0.77794
0.746689
0.717778
0.690823
0.665519
0.64179
0.619459
0.598301
0.578201
0.559055
0.540773
0.523214
0.506326
0.490116
0.474484
0.459356
0.444766
0.430608
0.416766
0.403228
0.389956
0.376965
0.364272
0.351805
0.33955
0.327499
0.315611
0.303788
0.291891
0.279712
0.266814
0.252087
0.226878
11.8132
10.2051
7.7453
6.01291
4.83822
4.02486
3.43955
2.99827
2.65295
2.37221
2.13951
1.94443
1.77843
1.636
1.51294
1.40589
1.31218
1.22966
1.15654
1.0911
1.03255
0.979831
0.931978
0.888532
0.848744
0.812341
0.778735
0.747512
0.718632
0.69171
0.666438
0.642737
0.62043
0.599291
0.579203
0.560061
0.541776
0.524205
0.507296
0.491055
0.475385
0.460211
0.445568
0.431352
0.417446
0.40384
0.390498
0.377435
0.364672
0.352137
0.339818
0.32771
0.315771
0.303906
0.291976
0.27977
0.266849
0.25209
0.226781
11.4814
10.0394
7.67031
5.98085
4.8258
4.02036
3.43819
2.99837
2.65393
2.37377
2.14141
1.94647
1.78044
1.63789
1.51465
1.40741
1.31352
1.23083
1.15758
1.09204
1.03341
0.980639
0.932756
0.889296
0.84951
0.813119
0.779535
0.748338
0.719487
0.692595
0.667352
0.643679
0.621394
0.600274
0.580197
0.56106
0.54277
0.525187
0.508257
0.491987
0.47628
0.46106
0.446366
0.432092
0.418123
0.404451
0.391039
0.377906
0.365073
0.352471
0.340089
0.327923
0.315934
0.304026
0.292061
0.279829
0.266884
0.252094
0.226686
11.1853
9.87601
7.59401
5.9467
4.81171
4.01486
3.43629
2.99813
2.65465
2.37512
2.14314
1.94838
1.78236
1.63972
1.51633
1.40892
1.31486
1.23201
1.15863
1.09299
1.03428
0.98146
0.933545
0.890071
0.850284
0.813904
0.780338
0.749165
0.720342
0.693479
0.668264
0.644616
0.622353
0.601249
0.581183
0.56205
0.543756
0.526161
0.50921
0.492912
0.477168
0.461904
0.447159
0.432829
0.418798
0.40506
0.39158
0.378378
0.365476
0.352807
0.340362
0.328139
0.316099
0.304148
0.292148
0.279889
0.26692
0.252098
0.226591
10.9222
9.71494
7.5185
5.91164
4.7966
4.00869
3.434
2.99765
2.65518
2.3763
2.14472
1.95016
1.78419
1.64149
1.51797
1.4104
1.31619
1.2332
1.15969
1.09395
1.03517
0.982294
0.934346
0.890856
0.851067
0.814695
0.781146
0.749995
0.721198
0.694361
0.669173
0.645548
0.623307
0.602218
0.582162
0.563032
0.544734
0.527126
0.510156
0.493829
0.478049
0.462742
0.447948
0.433562
0.419471
0.405668
0.392121
0.37885
0.365881
0.353146
0.340638
0.328357
0.316266
0.304272
0.292237
0.27995
0.266956
0.252101
0.226496
10.6885
9.55804
7.44538
5.877
4.78123
4.00225
3.43152
2.99703
2.65559
2.37736
2.14619
1.95184
1.78594
1.64319
1.51957
1.41187
1.31751
1.23439
1.16076
1.09492
1.03607
0.983141
0.935159
0.891651
0.851858
0.815493
0.781958
0.750828
0.722054
0.695242
0.670079
0.646477
0.624254
0.603181
0.583133
0.564006
0.545703
0.528084
0.511093
0.494739
0.478924
0.463575
0.448731
0.434291
0.420141
0.406275
0.392661
0.379323
0.366287
0.353486
0.340916
0.328578
0.316436
0.304398
0.292328
0.280012
0.266992
0.252104
0.226403
10.4668
9.40753
7.37662
5.84433
4.7665
3.99599
3.42908
2.99639
2.65593
2.37833
2.14755
1.95343
1.78761
1.64485
1.52114
1.41332
1.31883
1.23558
1.16184
1.09591
1.03698
0.984001
0.935984
0.892457
0.852658
0.816298
0.782776
0.751664
0.722911
0.696123
0.670982
0.647401
0.625197
0.604136
0.584097
0.564972
0.546664
0.529033
0.512022
0.495641
0.479791
0.464401
0.44951
0.435017
0.420808
0.40688
0.393202
0.379797
0.366694
0.353828
0.341196
0.328801
0.316608
0.304526
0.29242
0.280075
0.267028
0.252107
0.22631
10.2453
9.26719
7.31491
5.81538
4.75336
3.9904
3.42693
2.99586
2.65629
2.37925
2.14884
1.95494
1.78921
1.64645
1.52267
1.41475
1.32014
1.23677
1.16293
1.0969
1.0379
0.984872
0.93682
0.893274
0.853467
0.81711
0.783598
0.752503
0.72377
0.697003
0.671883
0.648322
0.626133
0.605086
0.585054
0.56593
0.547617
0.529973
0.512944
0.496535
0.480652
0.465221
0.450283
0.435738
0.421473
0.407484
0.393741
0.380271
0.367102
0.354172
0.341479
0.329027
0.316782
0.304657
0.292513
0.280138
0.267065
0.252109
0.226218
10.0355
9.14279
7.26385
5.79213
4.74285
3.98598
3.4253
2.99556
2.65672
2.38016
2.15008
1.95639
1.79076
1.648
1.52417
1.41616
1.32144
1.23796
1.16402
1.09791
1.03884
0.985756
0.937669
0.894101
0.854285
0.817929
0.784426
0.753345
0.724629
0.697882
0.672781
0.649238
0.627065
0.606029
0.586004
0.56688
0.548562
0.530906
0.513857
0.497422
0.481506
0.466035
0.451052
0.436456
0.422134
0.408085
0.39428
0.380745
0.367512
0.354518
0.341764
0.329255
0.316959
0.304789
0.292609
0.280203
0.267102
0.252112
0.226127
9.85891
9.0438
7.22802
5.7767
4.73595
3.98317
3.4244
2.99557
2.65726
2.38108
2.15129
1.95778
1.79225
1.64951
1.52564
1.41755
1.32273
1.23915
1.16512
1.09892
1.03979
0.986652
0.938528
0.894938
0.855112
0.818755
0.785259
0.75419
0.725491
0.698761
0.673678
0.650151
0.627992
0.606966
0.586946
0.567823
0.549499
0.53183
0.514762
0.498301
0.482352
0.466843
0.451815
0.437169
0.422793
0.408685
0.394818
0.38122
0.367923
0.354866
0.342051
0.329485
0.317139
0.304924
0.292706
0.280269
0.267139
0.252114
0.226036
9.74574
8.98423
7.21296
5.77123
4.73353
3.98232
3.42434
2.99594
2.65793
2.38202
2.15246
1.95912
1.79369
1.65098
1.52708
1.41892
1.32402
1.24034
1.16622
1.09995
1.04074
0.987559
0.939398
0.895785
0.855947
0.819588
0.786097
0.755039
0.726353
0.699639
0.674573
0.651061
0.628914
0.607897
0.587882
0.568758
0.550427
0.532746
0.515659
0.499173
0.483192
0.467644
0.452573
0.437878
0.423449
0.409283
0.395356
0.381695
0.368335
0.355216
0.34234
0.329718
0.31732
0.305061
0.292805
0.280336
0.267177
0.252116
0.225946
9.74854
8.98418
7.22498
5.77755
4.73611
3.98357
3.42517
2.99668
2.65874
2.38299
2.15361
1.96042
1.79508
1.6524
1.52849
1.42027
1.32529
1.24153
1.16733
1.10098
1.04171
0.988476
0.940279
0.896642
0.856791
0.820428
0.78694
0.755891
0.727218
0.700517
0.675465
0.651967
0.629831
0.608822
0.588811
0.569685
0.551348
0.533655
0.516548
0.500037
0.484025
0.46844
0.453326
0.438583
0.424101
0.40988
0.395892
0.38217
0.368748
0.355567
0.342632
0.329954
0.317505
0.3052
0.292905
0.280404
0.267215
0.252117
0.225856
9.96537
9.07167
7.27025
5.7966
4.74371
3.9868
3.42679
2.99772
2.65965
2.38397
2.15473
1.96167
1.79642
1.65379
1.52986
1.4216
1.32656
1.24272
1.16844
1.10202
1.04269
0.989404
0.941171
0.897509
0.857644
0.821275
0.787789
0.756747
0.728084
0.701396
0.676356
0.65287
0.630744
0.609741
0.589733
0.570605
0.552261
0.534555
0.51743
0.500894
0.484851
0.469229
0.454073
0.439284
0.424751
0.410474
0.396428
0.382645
0.369161
0.35592
0.342925
0.330191
0.317691
0.305341
0.293007
0.280474
0.267253
0.252119
0.225768
10.5925
9.28681
7.35332
5.82769
4.75553
3.99159
3.42898
2.99897
2.66062
2.38494
2.1558
1.96287
1.79772
1.65513
1.53121
1.42291
1.32781
1.24391
1.16955
1.10306
1.04367
0.990342
0.942072
0.898385
0.858505
0.82213
0.788643
0.757606
0.728951
0.702274
0.677246
0.65377
0.631652
0.610655
0.590648
0.571518
0.553167
0.535447
0.518303
0.501743
0.48567
0.470012
0.454816
0.43998
0.425397
0.411066
0.396962
0.38312
0.369576
0.356274
0.343221
0.330431
0.31788
0.305484
0.293111
0.280544
0.267292
0.25212
0.225679
12.0258
9.68646
7.47425
5.86767
4.76991
3.9972
3.43145
3.00029
2.66159
2.38587
2.15683
1.96402
1.79896
1.65643
1.53252
1.4242
1.32905
1.24509
1.17066
1.10411
1.04467
0.99129
0.942984
0.899271
0.859374
0.82299
0.789502
0.758468
0.729821
0.703152
0.678134
0.654666
0.632556
0.611563
0.591557
0.572424
0.554065
0.536332
0.519169
0.502585
0.486482
0.470789
0.455552
0.440673
0.42604
0.411655
0.397496
0.383594
0.369991
0.35663
0.343519
0.330674
0.318071
0.30563
0.293217
0.280615
0.267331
0.252121
0.225592
14.982
10.3155
7.62311
5.91051
4.78454
4.00278
3.43385
3.00155
2.66249
2.38674
2.15779
1.96511
1.80016
1.6577
1.53381
1.42547
1.33028
1.24626
1.17178
1.10517
1.04567
0.992247
0.943905
0.900165
0.860251
0.823858
0.790367
0.759335
0.730692
0.704031
0.67902
0.65556
0.633455
0.612466
0.59246
0.573323
0.554955
0.537209
0.520028
0.50342
0.487287
0.47156
0.456284
0.44136
0.426679
0.412243
0.398028
0.384069
0.370407
0.356987
0.343818
0.330918
0.318265
0.305778
0.293325
0.280688
0.26737
0.252122
0.225505
20.9006
11.1691
7.77805
5.94911
4.79733
4.00769
3.43599
3.00268
2.66331
2.38754
2.1587
1.96615
1.80131
1.65892
1.53507
1.42673
1.3315
1.24744
1.1729
1.10623
1.04668
0.993212
0.944835
0.901069
0.861136
0.824732
0.791236
0.760204
0.731566
0.70491
0.679905
0.656451
0.634351
0.613363
0.593357
0.574215
0.555838
0.538078
0.520879
0.504247
0.488086
0.472325
0.45701
0.442044
0.427315
0.412828
0.398559
0.384543
0.370824
0.357345
0.34412
0.331165
0.318461
0.305928
0.293434
0.280762
0.267411
0.252122
0.225419
49.7361
12.5256
7.92623
5.98181
4.80812
4.01193
3.43786
3.00367
2.66404
2.38828
2.15956
1.96714
1.80242
1.66011
1.5363
1.42796
1.33272
1.24861
1.17402
1.10729
1.0477
0.994186
0.945774
0.901981
0.862029
0.825613
0.792111
0.761078
0.732441
0.705789
0.680789
0.657339
0.635242
0.614256
0.594248
0.575101
0.556714
0.538941
0.521723
0.505067
0.488878
0.473084
0.457732
0.442723
0.427948
0.413411
0.399089
0.385018
0.371241
0.357705
0.344423
0.331414
0.318659
0.30608
0.293545
0.280837
0.267451
0.252123
0.225333
42.4123
13.0196
8.04999
6.01315
4.81859
4.01605
3.43967
3.00463
2.66474
2.38899
2.16037
1.96809
1.8035
1.66127
1.5375
1.42918
1.33392
1.24977
1.17513
1.10837
1.04872
0.995169
0.946721
0.902901
0.86293
0.826501
0.792991
0.761955
0.733318
0.706668
0.681672
0.658225
0.63613
0.615144
0.595133
0.57598
0.557583
0.539796
0.522559
0.505881
0.489664
0.473837
0.458448
0.443398
0.428578
0.413992
0.399617
0.385492
0.371659
0.358067
0.344728
0.331665
0.31886
0.306234
0.293658
0.280913
0.267492
0.252123
0.225248
36.9679
13.2081
8.14922
6.04498
4.82996
4.02062
3.44169
3.00567
2.66546
2.38968
2.16116
1.96901
1.80454
1.66241
1.53869
1.43038
1.33511
1.25093
1.17626
1.10944
1.04975
0.996159
0.947676
0.903829
0.863837
0.827394
0.793876
0.762835
0.734197
0.707548
0.682553
0.659108
0.637014
0.616027
0.596012
0.576852
0.558446
0.540644
0.523389
0.506687
0.490443
0.474584
0.459159
0.444069
0.429205
0.414571
0.400145
0.385965
0.372077
0.358429
0.345035
0.331919
0.319062
0.30639
0.293773
0.28099
0.267534
0.252123
0.225163
32.8783
13.1924
8.21645
6.07493
4.84216
4.02589
3.4441
3.0069
2.66627
2.39041
2.16196
1.96993
1.80557
1.66352
1.53986
1.43157
1.33629
1.25209
1.17738
1.11052
1.05079
0.997156
0.94864
0.904765
0.864751
0.828293
0.794765
0.763718
0.735077
0.708428
0.683433
0.659989
0.637894
0.616904
0.596885
0.577718
0.559301
0.541485
0.524211
0.507487
0.491215
0.475325
0.459865
0.444736
0.429828
0.415147
0.40067
0.386438
0.372496
0.358793
0.345344
0.332174
0.319267
0.306549
0.293889
0.281069
0.267576
0.252124
0.225079
29.7671
13.0419
8.25038
6.10019
4.85453
4.03182
3.44698
3.00842
2.66723
2.39121
2.16278
1.97084
1.80658
1.66462
1.54101
1.43275
1.33747
1.25324
1.1785
1.1116
1.05183
0.99816
0.94961
0.905708
0.865672
0.829198
0.795658
0.764604
0.73596
0.709308
0.684312
0.660867
0.63877
0.617777
0.597753
0.578578
0.560149
0.542318
0.525026
0.508279
0.491981
0.476061
0.460565
0.445397
0.430447
0.41572
0.401195
0.386911
0.372915
0.359157
0.345654
0.332431
0.319474
0.306709
0.294008
0.281149
0.267618
0.252124
0.224996
27.3618
12.8125
8.25479
6.11913
4.86634
4.03824
3.45036
3.01026
2.66839
2.39211
2.16365
1.97177
1.8076
1.66571
1.54216
1.43392
1.33864
1.2544
1.17962
1.11269
1.05288
0.99917
0.950588
0.906657
0.8666
0.830108
0.796556
0.765493
0.736843
0.710188
0.68519
0.661742
0.639642
0.618646
0.598615
0.579431
0.560991
0.543145
0.525834
0.509065
0.492741
0.47679
0.46126
0.446055
0.431063
0.416291
0.401717
0.387382
0.373334
0.359523
0.345966
0.332691
0.319683
0.306872
0.294127
0.28123
0.267661
0.252124
0.224913
25.4714
12.541
8.23448
6.13101
4.877
4.04494
3.45419
3.01245
2.66976
2.39315
2.16459
1.97273
1.80862
1.6668
1.5433
1.43508
1.3398
1.25555
1.18074
1.11378
1.05393
1.00019
0.951572
0.907614
0.867533
0.831023
0.797458
0.766385
0.737728
0.711068
0.686066
0.662615
0.640511
0.619509
0.599471
0.580278
0.561826
0.543965
0.526635
0.509844
0.493494
0.477513
0.46195
0.446708
0.431676
0.416859
0.402238
0.387853
0.373753
0.359889
0.346279
0.332952
0.319895
0.307036
0.294249
0.281312
0.267705
0.252124
0.224831
23.9631
12.25
8.19389
6.1356
4.886
4.05167
3.4584
3.01499
2.67139
2.39433
2.16561
1.97374
1.80967
1.6679
1.54443
1.43625
1.34097
1.2567
1.18187
1.11487
1.05499
1.00121
0.952562
0.908576
0.868472
0.831944
0.798364
0.76728
0.738615
0.711948
0.686941
0.663485
0.641376
0.620368
0.600322
0.581119
0.562655
0.544778
0.52743
0.510616
0.494241
0.478231
0.462635
0.447357
0.432285
0.417425
0.402757
0.388324
0.374173
0.360256
0.346593
0.333214
0.320108
0.307203
0.294372
0.281395
0.267749
0.252123
0.224749
22.7434
11.9536
8.13709
6.13305
4.89296
4.05819
3.46289
3.01785
2.67326
2.39568
2.16674
1.9748
1.81074
1.66901
1.54557
1.43741
1.34213
1.25785
1.183
1.11597
1.05605
1.00224
0.953559
0.909544
0.869417
0.832869
0.799273
0.768177
0.739502
0.712828
0.687815
0.664353
0.642238
0.621222
0.601168
0.581954
0.563477
0.545585
0.528217
0.511382
0.494981
0.478943
0.463315
0.448001
0.43289
0.417988
0.403275
0.388793
0.374592
0.360624
0.346909
0.333479
0.320323
0.307371
0.294497
0.28148
0.267794
0.252123
0.224668
21.7447
11.661
8.06774
6.1238
4.89763
4.06427
3.46755
3.021
2.67537
2.3972
2.16797
1.97592
1.81184
1.67013
1.54672
1.43857
1.34329
1.259
1.18412
1.11706
1.05712
1.00327
0.954561
0.910518
0.870366
0.833798
0.800186
0.769077
0.740391
0.713708
0.688687
0.665218
0.643096
0.622072
0.602009
0.582784
0.564293
0.546385
0.528999
0.512142
0.495716
0.479649
0.46399
0.448641
0.433492
0.418548
0.403791
0.389262
0.375011
0.360992
0.347226
0.333745
0.32054
0.307541
0.294624
0.281565
0.267839
0.252123
0.224588
20.9172
11.3778
7.98906
6.10851
4.89991
4.06973
3.47227
3.02439
2.67772
2.39889
2.16932
1.97711
1.81299
1.67127
1.54787
1.43973
1.34446
1.26015
1.18525
1.11817
1.05819
1.00431
0.955568
0.911497
0.871321
0.834732
0.801102
0.769978
0.741281
0.714588
0.689558
0.666081
0.64395
0.622918
0.602844
0.583607
0.565103
0.547178
0.529773
0.512895
0.496444
0.480349
0.46466
0.449277
0.43409
0.419106
0.404305
0.389729
0.37543
0.361361
0.347545
0.334013
0.320758
0.307713
0.294752
0.281652
0.267885
0.252123
0.224508
20.2239
11.1075
7.9038
6.08792
4.8998
4.07446
3.47696
3.02796
2.68027
2.40075
2.17078
1.97837
1.81417
1.67243
1.54904
1.4409
1.34562
1.2613
1.18639
1.11927
1.05926
1.00535
0.95658
0.912481
0.872279
0.835669
0.802021
0.770882
0.742172
0.715468
0.690428
0.666941
0.644801
0.623759
0.603674
0.584425
0.565906
0.547965
0.530541
0.513641
0.497166
0.481044
0.465324
0.449908
0.434685
0.419661
0.404817
0.390196
0.375849
0.361731
0.347864
0.334282
0.320979
0.307887
0.294882
0.28174
0.267931
0.252123
0.224429
19.6367
10.8518
7.81431
6.06286
4.89738
4.07835
3.48152
3.03166
2.68299
2.40276
2.17235
1.97971
1.8154
1.67362
1.55021
1.44207
1.34679
1.26246
1.18752
1.12038
1.06034
1.0064
0.957596
0.91347
0.873242
0.83661
0.802942
0.771787
0.743063
0.716347
0.691296
0.667799
0.645649
0.624596
0.604499
0.585237
0.566704
0.548746
0.531303
0.514382
0.497883
0.481734
0.465984
0.450535
0.435276
0.420213
0.405327
0.390661
0.376268
0.362101
0.348185
0.334553
0.321201
0.308063
0.295013
0.281829
0.267978
0.252123
0.22435
19.1337
10.6118
7.72257
6.03416
4.89282
4.08136
3.48588
3.03543
2.68587
2.40491
2.17402
1.98112
1.81666
1.67483
1.5514
1.44325
1.34796
1.26361
1.18865
1.12149
1.06142
1.00745
0.958616
0.914462
0.874209
0.837554
0.803867
0.772694
0.743955
0.717226
0.692163
0.668654
0.646493
0.625428
0.60532
0.586044
0.567495
0.549521
0.532059
0.515116
0.498594
0.482418
0.466639
0.451158
0.435864
0.420763
0.405836
0.391126
0.376687
0.362472
0.348506
0.334826
0.321425
0.30824
0.295146
0.281919
0.268025
0.252123
0.224272
18.6976
10.388
7.63033
6.00266
4.88633
4.08347
3.48996
3.03921
2.68884
2.40717
2.17579
1.98258
1.81797
1.67606
1.5526
1.44443
1.34913
1.26477
1.18979
1.1226
1.0625
1.0085
0.95964
0.915457
0.875179
0.8385
0.804793
0.773602
0.744847
0.718104
0.693028
0.669507
0.647334
0.626257
0.606135
0.586845
0.568281
0.55029
0.532809
0.515845
0.499298
0.483097
0.467289
0.451777
0.436448
0.42131
0.406342
0.391589
0.377105
0.362843
0.348829
0.335099
0.321651
0.308419
0.29528
0.28201
0.268073
0.252123
0.224194
18.3143
10.1805
7.53912
5.96917
4.87817
4.08469
3.4937
3.04294
2.69188
2.40952
2.17763
1.98411
1.81932
1.67731
1.55381
1.44562
1.3503
1.26592
1.19092
1.12371
1.06358
1.00956
0.960667
0.916456
0.876152
0.83945
0.805721
0.774512
0.74574
0.718981
0.693891
0.670357
0.648171
0.627081
0.606945
0.587641
0.569061
0.551052
0.533552
0.516567
0.499998
0.48377
0.467934
0.452391
0.437029
0.421854
0.406847
0.392052
0.377523
0.363214
0.349152
0.335375
0.321878
0.3086
0.295416
0.282103
0.268121
0.252123
0.224117
17.9715
9.98986
7.45034
5.93447
4.86857
4.08503
3.49704
3.04655
2.69494
2.41192
2.17953
1.98568
1.8207
1.67859
1.55503
1.44681
1.35147
1.26708
1.19206
1.12482
1.06467
1.01061
0.961696
0.917458
0.877128
0.840401
0.806651
0.775422
0.746632
0.719858
0.694753
0.671205
0.649005
0.627901
0.607751
0.588432
0.569836
0.551809
0.53429
0.517284
0.500691
0.484438
0.468575
0.453002
0.437606
0.422395
0.407349
0.392513
0.37794
0.363586
0.349476
0.335651
0.322107
0.308782
0.295553
0.282196
0.26817
0.252123
0.224041
17.6572
9.81706
7.36528
5.89927
4.85777
4.08447
3.49991
3.04998
2.69795
2.41435
2.18147
1.98729
1.8221
1.67988
1.55626
1.448
1.35265
1.26824
1.1932
1.12593
1.06576
1.01167
0.962727
0.918462
0.878105
0.841355
0.807582
0.776333
0.747525
0.720733
0.695613
0.67205
0.649835
0.628716
0.608552
0.589217
0.570604
0.55256
0.535022
0.517994
0.501379
0.485101
0.469211
0.453608
0.43818
0.422934
0.40785
0.392973
0.378357
0.363957
0.349802
0.335929
0.322338
0.308966
0.295692
0.282291
0.26822
0.252123
0.223965
17.3588
9.66413
7.28502
5.86408
4.84588
4.083
3.50222
3.05313
2.70086
2.41676
2.18343
1.98891
1.82352
1.68117
1.55749
1.4492
1.35382
1.26939
1.19433
1.12705
1.06684
1.01273
0.96376
0.919467
0.879085
0.84231
0.808515
0.777244
0.748417
0.721608
0.696471
0.672892
0.650662
0.629528
0.609348
0.589997
0.571367
0.553305
0.535747
0.518699
0.502061
0.485759
0.469842
0.45421
0.43875
0.42347
0.408349
0.393432
0.378773
0.364329
0.350127
0.336207
0.32257
0.309151
0.295832
0.282386
0.26827
0.252123
0.22389
17.0677
9.53646
7.21029
5.82919
4.83293
4.08051
3.50387
3.05593
2.7036
2.4191
2.18536
1.99054
1.82494
1.68248
1.55872
1.4504
1.35499
1.27054
1.19547
1.12816
1.06793
1.01379
0.964794
0.920474
0.880065
0.843266
0.809447
0.778155
0.749308
0.722481
0.697326
0.673731
0.651485