/*--------------------------------*- C++ -*----------------------------------*\
| =========                 |                                                 |
| \\      /  F ield         | OpenFOAM: The Open Source CFD Toolbox           |
|  \\    /   O peration     | Version:  3.0.1                                 |
|   \\  /    A nd           | Web:      www.OpenFOAM.org                      |
|    \\/     M anipulation  |                                                 |
\*---------------------------------------------------------------------------*/
FoamFile
{
    version     2.0;
    format      ascii;
    class       volScalarField;
    location    "2629";
    object      k;
}
// * * * * * * * * * * * * * * * * * * * * * * * * * * * * * * * * * * * * * //

dimensions      [0 2 -2 0 0 0 0];

internalField   nonuniform List<scalar> 
14431
(
0.316101
0.360266
0.361174
0.363025
0.373728
0.447801
0.455551
0.457826
0.459345
0.460699
0.46198
0.463189
0.464318
0.465346
0.46625
0.467009
0.467603
0.468013
0.468224
0.468223
0.467996
0.467537
0.466836
0.465891
0.464696
0.463255
0.461565
0.459619
0.457436
0.455014
0.452348
0.449456
0.446345
0.44301
0.439457
0.435694
0.431725
0.427541
0.423142
0.418546
0.413735
0.408688
0.403411
0.397858
0.391952
0.385646
0.378861
0.371527
0.363563
0.354805
0.345094
0.334249
0.322029
0.308111
0.292085
0.273507
0.251936
0.227534
0.207946
0.280007
0.357128
0.35988
0.364307
0.382779
0.441097
0.453596
0.457523
0.459547
0.46104
0.462327
0.463487
0.464547
0.4655
0.466332
0.467027
0.467567
0.467934
0.468113
0.468091
0.467854
0.467394
0.466701
0.465773
0.464603
0.463193
0.46154
0.459635
0.457498
0.455123
0.452507
0.449662
0.446598
0.443306
0.439792
0.436061
0.432118
0.427952
0.423563
0.418967
0.414148
0.409084
0.403782
0.398196
0.392253
0.385904
0.379074
0.371695
0.363687
0.354891
0.34515
0.334287
0.322064
0.308161
0.292173
0.273654
0.252168
0.227935
0.207957
0.253472
0.353373
0.359107
0.366397
0.389274
0.436738
0.451663
0.457061
0.459658
0.46134
0.462655
0.463779
0.464774
0.465655
0.466418
0.46705
0.467536
0.46786
0.468007
0.467964
0.467715
0.467255
0.46657
0.465658
0.464512
0.463133
0.461517
0.459653
0.45756
0.455233
0.452664
0.449868
0.446849
0.4436
0.440124
0.436426
0.432509
0.42836
0.423981
0.419386
0.414559
0.409478
0.404151
0.398535
0.392554
0.386163
0.379288
0.371864
0.363813
0.354979
0.345208
0.334327
0.322101
0.308213
0.292261
0.273801
0.2524
0.228328
0.207971
0.233644
0.34922
0.35875
0.368969
0.394103
0.433914
0.449936
0.45652
0.459691
0.461594
0.462961
0.46406
0.464999
0.465813
0.466507
0.467077
0.46751
0.467791
0.467906
0.467841
0.467582
0.467119
0.466442
0.465547
0.464424
0.463075
0.461495
0.459672
0.457623
0.455342
0.452821
0.450071
0.447098
0.443891
0.440454
0.436788
0.432896
0.428765
0.424396
0.419802
0.414967
0.409869
0.404519
0.398872
0.392854
0.386422
0.379503
0.372034
0.36394
0.355069
0.345268
0.334369
0.322139
0.308266
0.292349
0.273947
0.252633
0.228714
0.207988
0.21856
0.345008
0.358752
0.371778
0.397835
0.432118
0.44848
0.45596
0.459663
0.461804
0.463242
0.46433
0.465219
0.46597
0.466599
0.467109
0.467489
0.467728
0.467811
0.467724
0.467453
0.466989
0.46632
0.465439
0.46434
0.46302
0.461475
0.459692
0.457687
0.455451
0.452977
0.450274
0.447345
0.44418
0.440779
0.437145
0.433279
0.429166
0.424806
0.420214
0.415371
0.410258
0.404885
0.399207
0.393153
0.386681
0.379719
0.372206
0.36407
0.355162
0.345331
0.334413
0.32218
0.30832
0.292438
0.274093
0.252865
0.229093
0.208006
0.206869
0.340998
0.359071
0.37467
0.40084
0.431028
0.4473
0.455419
0.459592
0.461972
0.463494
0.464583
0.465432
0.466125
0.466693
0.467145
0.467474
0.467671
0.467722
0.467614
0.467331
0.466865
0.466202
0.465337
0.46426
0.462969
0.461459
0.459715
0.457752
0.455561
0.453133
0.450475
0.44759
0.444465
0.441102
0.437499
0.433658
0.429563
0.425212
0.420621
0.415772
0.410644
0.405247
0.39954
0.393452
0.386939
0.379935
0.372378
0.364202
0.355257
0.345396
0.33446
0.322222
0.308376
0.292527
0.274239
0.253097
0.229465
0.208027
0.197625
0.337369
0.359669
0.377545
0.403354
0.430426
0.446371
0.454921
0.459491
0.462101
0.463717
0.464817
0.465635
0.466277
0.466788
0.467184
0.467464
0.467621
0.46764
0.467511
0.467216
0.466748
0.466091
0.46524
0.464185
0.462922
0.461445
0.45974
0.457818
0.455671
0.453288
0.450674
0.447832
0.444748
0.44142
0.437849
0.434032
0.429954
0.425614
0.421024
0.416168
0.411025
0.405607
0.399872
0.393749
0.387198
0.380151
0.372553
0.364335
0.355354
0.345464
0.334509
0.322267
0.308433
0.292617
0.274386
0.253329
0.22983
0.20805
0.190141
0.334272
0.36051
0.38034
0.405526
0.430163
0.445659
0.454475
0.45937
0.462194
0.463909
0.465031
0.465826
0.466423
0.466882
0.467226
0.467459
0.467576
0.467566
0.467414
0.467108
0.466637
0.465987
0.46515
0.464115
0.46288
0.461435
0.459767
0.457886
0.455782
0.453442
0.450872
0.448072
0.445027
0.441735
0.438193
0.434401
0.43034
0.42601
0.421422
0.41656
0.411403
0.405964
0.400201
0.394044
0.387455
0.380368
0.372728
0.36447
0.355453
0.345535
0.334561
0.322313
0.308491
0.292707
0.274532
0.25356
0.230188
0.208075
0.183884
0.331861
0.361546
0.383006
0.40744
0.430131
0.445121
0.454081
0.459235
0.462253
0.464068
0.465221
0.466003
0.466563
0.466974
0.46727
0.467459
0.467538
0.467498
0.467326
0.467008
0.466534
0.465889
0.465065
0.464051
0.462842
0.46143
0.459798
0.457956
0.455893
0.453596
0.451069
0.448309
0.445303
0.442045
0.438533
0.434764
0.430721
0.4264
0.421814
0.416947
0.411776
0.406317
0.400527
0.394337
0.387712
0.380585
0.372904
0.364607
0.355554
0.345608
0.334616
0.322362
0.308552
0.292799
0.274678
0.25379
0.23054
0.208101
0.179045
0.330156
0.362716
0.385492
0.409134
0.430244
0.444718
0.453732
0.459089
0.46228
0.464196
0.465386
0.466163
0.466693
0.467063
0.467315
0.467462
0.467505
0.467437
0.467245
0.466916
0.466439
0.465799
0.464988
0.463993
0.46281
0.461428
0.459831
0.458027
0.456005
0.45375
0.451264
0.448544
0.445575
0.442351
0.438868
0.435122
0.431096
0.426784
0.422201
0.417328
0.412145
0.406665
0.400849
0.394629
0.387967
0.380802
0.373081
0.364746
0.355658
0.345683
0.334672
0.322414
0.308613
0.292891
0.274824
0.254019
0.230884
0.20813
0.00904147
0.01016
0.0113187
0.0123922
0.0133501
0.0142041
0.014975
0.015679
0.0163242
0.0169055
0.0173392
0.0175998
0.0176594
0.017487
0.01705
0.0163185
0.015277
0.0140035
0.0135718
0.0302278
0.0128154
0.0137637
0.0147718
0.0152672
0.0153254
0.0150733
0.0146224
0.0140612
0.0134553
0.012854
0.0123685
0.0120008
0.0117337
0.0115402
0.0113823
0.0112104
0.0109714
0.0108182
0.0142321
0.0565091
0.0159148
0.0157749
0.0166667
0.017186
0.0172366
0.0169159
0.0163477
0.0156399
0.0148732
0.0141033
0.0133677
0.0127089
0.0121492
0.0116954
0.0113409
0.011072
0.0108883
0.011121
0.0171566
0.0737514
0.0183365
0.0169948
0.0177945
0.0183378
0.0183713
0.0179876
0.0173361
0.0165471
0.015715
0.0148992
0.0141223
0.0134102
0.0127854
0.0122622
0.0118459
0.0115372
0.0113575
0.0117872
0.0200746
0.0862185
0.020242
0.0179307
0.0187547
0.0193246
0.0192876
0.0187709
0.0179687
0.0170453
0.0161132
0.0152363
0.0144288
0.0137025
0.0130727
0.0125498
0.0121391
0.0118427
0.0116943
0.0123528
0.0229943
0.0963386
0.0217351
0.0187435
0.0196907
0.0202753
0.0201106
0.0193883
0.018362
0.0172407
0.016164
0.0152022
0.0143603
0.0136316
0.0130188
0.0125227
0.0121439
0.0118836
0.0117969
0.0127941
0.0261546
0.105605
0.0228891
0.0195302
0.020683
0.0212687
0.0209276
0.0199338
0.0186079
0.0172174
0.0159424
0.0148672
0.0139845
0.0132629
0.0126851
0.0122359
0.011907
0.0116996
0.0117076
0.013198
0.0298201
0.114839
0.0237611
0.0203553
0.021781
0.0223554
0.0218012
0.020478
0.0187755
0.0170341
0.0154961
0.0142742
0.0133489
0.0126525
0.0121348
0.0117565
0.011497
0.0113602
0.0115031
0.0136925
0.0342771
0.124522
0.0243978
0.0212641
0.0230151
0.0235693
0.0227823
0.0210877
0.0189379
0.0167564
0.0148763
0.0134658
0.0125003
0.0118575
0.0114337
0.0111546
0.0109852
0.010939
0.0112698
0.0144436
0.0398604
0.134985
0.0248383
0.0222891
0.0244012
0.0249335
0.0239197
0.0218414
0.019196
0.016489
0.0141732
0.0125164
0.0115121
0.0109584
0.010664
0.0105092
0.0104468
0.0105117
0.0111045
0.0156813
0.0469769
0.14652
0.025117
0.0234542
0.0259439
0.0264675
0.0252702
0.022844
0.0197045
0.0164178
0.0135688
0.0115826
0.0105226
0.0100822
0.00993575
0.00991354
0.00996366
0.0101602
0.0111304
0.0177606
0.0561911
0.159827
0.0252654
0.0247767
0.0276386
0.0281925
0.0269037
0.0242357
0.0206918
0.016856
0.013415
0.0109858
0.0097853
0.00942347
0.00939284
0.00947889
0.00962974
0.00998315
0.0115354
0.0212637
0.0681486
0.175176
0.0253152
0.026268
0.0294708
0.0301331
0.0289023
0.0261903
0.022461
0.0182722
0.0143314
0.0113737
0.00978981
0.00928647
0.00923115
0.00935313
0.00958453
0.0101549
0.0126903
0.0271809
0.0836464
0.191805
0.0252966
0.0278663
0.0314672
0.032421
0.0315053
0.0290627
0.0254808
0.0212257
0.0169194
0.0133064
0.0110086
0.0101076
0.00984018
0.00989213
0.0102057
0.0111837
0.0155803
0.0375507
0.104412
0.207773
0.0252061
0.0295135
0.0336393
0.0351195
0.0348584
0.0331234
0.0302011
0.0264149
0.0221994
0.0181298
0.0148792
0.0132349
0.0124983
0.0123697
0.0129476
0.0152757
0.0242285
0.055525
0.127022
0.223975
0.0250198
0.0311272
0.0359041
0.0381719
0.0389638
0.038483
0.03692
0.0344584
0.0313328
0.0278728
0.0245568
0.0220656
0.0209112
0.0208417
0.0224097
0.027675
0.0427278
0.0804704
0.151681
0.24206
0.0246912
0.032546
0.0380483
0.0413252
0.0435378
0.0448498
0.045384
0.0452274
0.0444733
0.0432469
0.0417409
0.0402595
0.0400189
0.0411994
0.0448172
0.0534398
0.0727345
0.112503
0.180605
0.265229
0.024144
0.0334749
0.0396444
0.0439937
0.0477877
0.0511809
0.0542587
0.0570559
0.0595935
0.0618953
0.064008
0.0660309
0.0686099
0.0727619
0.0795469
0.0914248
0.113236
0.152915
0.217712
0.298629
0.0232821
0.03341
0.0399672
0.0451435
0.0502294
0.0554058
0.0607578
0.0663177
0.0721011
0.0781236
0.0844162
0.0910447
0.0981184
0.10668
0.117923
0.133997
0.158924
0.199401
0.263237
0.345869
0.022037
0.0316357
0.038112
0.0435473
0.0490745
0.0549327
0.061247
0.0681021
0.0755762
0.083751
0.0927278
0.102647
0.11371
0.126285
0.141542
0.161395
0.189117
0.230546
0.294964
0.389833
0.0204489
0.0282983
0.0350635
0.0409717
0.0464867
0.0518987
0.0572988
0.0627395
0.0683557
0.0742955
0.0807316
0.087882
0.096044
0.105658
0.117293
0.131757
0.15047
0.175986
0.213873
0.284324
0.188108
0.329345
0.363922
0.38767
0.410572
0.430425
0.444417
0.453427
0.458936
0.462276
0.464289
0.465521
0.466301
0.466809
0.467145
0.467358
0.467468
0.467478
0.467384
0.467173
0.466833
0.466353
0.465718
0.464919
0.463942
0.462783
0.46143
0.459867
0.458099
0.456115
0.453899
0.451452
0.448769
0.445836
0.442644
0.439188
0.435464
0.431454
0.427152
0.422571
0.417693
0.412498
0.407
0.40116
0.394909
0.388214
0.381012
0.373254
0.364882
0.355761
0.345759
0.334731
0.322466
0.308676
0.292982
0.274966
0.25424
0.231211
0.20816
0.198946
0.329024
0.365089
0.389582
0.411806
0.430627
0.444173
0.453145
0.458773
0.462245
0.464351
0.465631
0.46642
0.466914
0.467221
0.4674
0.467476
0.467456
0.467337
0.467109
0.466759
0.466276
0.465645
0.464857
0.463898
0.462762
0.461437
0.459905
0.458172
0.456224
0.454045
0.451635
0.448989
0.446089
0.442927
0.439498
0.435795
0.431801
0.427508
0.422929
0.418046
0.41284
0.407325
0.401461
0.395183
0.388455
0.381218
0.373424
0.365017
0.355864
0.345836
0.33479
0.32252
0.308738
0.293072
0.275106
0.254456
0.231527
0.208191
0.209542
0.329027
0.366165
0.391212
0.412842
0.430813
0.443959
0.452875
0.458597
0.462188
0.464386
0.465716
0.466521
0.467007
0.467291
0.467441
0.467486
0.467438
0.467296
0.467051
0.466691
0.466206
0.465579
0.464802
0.46386
0.462746
0.461447
0.459946
0.458246
0.456334
0.454191
0.451818
0.449206
0.446339
0.443207
0.439803
0.436121
0.432142
0.427858
0.423282
0.418395
0.413179
0.407646
0.40176
0.395454
0.388696
0.381424
0.373594
0.365153
0.355969
0.345915
0.334852
0.322575
0.308803
0.293163
0.275246
0.254671
0.231838
0.208224
0.219433
0.329434
0.367175
0.392566
0.413686
0.43096
0.443755
0.452608
0.458407
0.462107
0.464394
0.465778
0.466605
0.467088
0.467355
0.46748
0.467498
0.467424
0.467261
0.467
0.46663
0.466143
0.46552
0.464753
0.463827
0.462735
0.461462
0.459991
0.458323
0.456445
0.454338
0.451999
0.449422
0.446586
0.443483
0.440104
0.436443
0.432478
0.428203
0.423629
0.418739
0.413512
0.407964
0.402056
0.395724
0.388935
0.38163
0.373766
0.365291
0.356076
0.345997
0.334916
0.322633
0.308869
0.293255
0.275386
0.254886
0.232144
0.208258
0.228614
0.330301
0.368159
0.393678
0.414355
0.431058
0.443551
0.452342
0.458204
0.462004
0.464378
0.465819
0.466672
0.467158
0.467413
0.467516
0.46751
0.467414
0.46723
0.466954
0.466577
0.466086
0.465468
0.464711
0.463801
0.462729
0.461481
0.460039
0.458402
0.456557
0.454484
0.452179
0.449635
0.44683
0.443756
0.440401
0.436759
0.432809
0.428543
0.423972
0.419078
0.413841
0.408278
0.402349
0.395992
0.389173
0.381836
0.373938
0.365431
0.356186
0.346081
0.334983
0.322694
0.308937
0.293349
0.275527
0.2551
0.232445
0.208293
0.237186
0.331619
0.369154
0.394596
0.414877
0.431108
0.443343
0.452075
0.457992
0.461883
0.46434
0.465839
0.466723
0.467217
0.467464
0.46755
0.467523
0.467406
0.467205
0.466915
0.466529
0.466037
0.465422
0.464675
0.46378
0.462728
0.461505
0.46009
0.458484
0.456671
0.454631
0.452359
0.449847
0.447072
0.444024
0.440693
0.437071
0.433135
0.428877
0.424309
0.419412
0.414166
0.408588
0.402639
0.396257
0.389409
0.382041
0.374111
0.365571
0.356297
0.346167
0.335052
0.322757
0.309007
0.293444
0.275668
0.255312
0.232741
0.20833
0.245293
0.333359
0.370201
0.395378
0.415288
0.431122
0.443134
0.451811
0.457774
0.461747
0.464284
0.465841
0.466759
0.467265
0.467508
0.467581
0.467537
0.467401
0.467184
0.466882
0.466489
0.465995
0.465384
0.464646
0.463766
0.462733
0.461533
0.460145
0.458568
0.456786
0.454778
0.452538
0.450056
0.447311
0.444289
0.440981
0.437377
0.433455
0.429206
0.424641
0.419741
0.414487
0.408894
0.402926
0.39652
0.389645
0.382246
0.374284
0.365713
0.35641
0.346256
0.335124
0.322822
0.309079
0.29354
0.27581
0.255524
0.233033
0.208369
0.253119
0.335522
0.371314
0.396085
0.415628
0.431117
0.442931
0.451555
0.457555
0.461602
0.464213
0.465828
0.466782
0.467303
0.467547
0.46761
0.467551
0.467399
0.467167
0.466854
0.466454
0.465959
0.465352
0.464623
0.463757
0.462743
0.461565
0.460203
0.458655
0.456903
0.454925
0.452716
0.450264
0.447547
0.444551
0.441265
0.437679
0.433771
0.42953
0.424967
0.420065
0.414802
0.409196
0.40321
0.396781
0.389879
0.382451
0.374458
0.365856
0.356524
0.346347
0.335198
0.322889
0.309153
0.293638
0.275952
0.255735
0.23332
0.208409
0.260963
0.338009
0.372533
0.396783
0.415945
0.431116
0.442748
0.451314
0.457342
0.461453
0.464132
0.465802
0.466792
0.467332
0.467579
0.467636
0.467565
0.4674
0.467155
0.466832
0.466426
0.465929
0.465326
0.464607
0.463754
0.462758
0.461602
0.460265
0.458744
0.457021
0.455073
0.452893
0.45047
0.44778
0.444809
0.441544
0.437976
0.434081
0.429848
0.425289
0.420384
0.415114
0.409494
0.40349
0.397039
0.390111
0.382655
0.374632
0.366001
0.356641
0.34644
0.335274
0.322959
0.30923
0.293737
0.276095
0.255945
0.233603
0.208451
0.269046
0.340725
0.373919
0.397541
0.416288
0.431148
0.442598
0.4511
0.457141
0.461304
0.464045
0.465767
0.466793
0.467353
0.467606
0.467659
0.467579
0.467402
0.467147
0.466815
0.466404
0.465907
0.465308
0.464597
0.463758
0.462779
0.461644
0.46033
0.458836
0.45714
0.455221
0.45307
0.450674
0.44801
0.445063
0.44182
0.438268
0.434386
0.430161
0.425605
0.420698
0.41542
0.409788
0.403768
0.397295
0.390342
0.382858
0.374806
0.366146
0.35676
0.346535
0.335353
0.323031
0.309308
0.293837
0.276238
0.256154
0.233881
0.208494
0.277064
0.343727
0.375545
0.398433
0.416709
0.431241
0.442498
0.450921
0.45696
0.461163
0.463955
0.465725
0.466786
0.467366
0.467628
0.46768
0.467593
0.467407
0.467142
0.466803
0.466388
0.46589
0.465295
0.464593
0.463766
0.462804
0.461689
0.460399
0.45893
0.457261
0.455369
0.453246
0.450877
0.448238
0.445314
0.442091
0.438556
0.434686
0.430469
0.425916
0.421007
0.415722
0.410079
0.404042
0.397548
0.390572
0.383061
0.374981
0.366293
0.35688
0.346633
0.335435
0.323106
0.309388
0.293939
0.276382
0.256362
0.234156
0.208538
0.28479
0.34711
0.377503
0.399539
0.417261
0.431426
0.442464
0.450786
0.456805
0.461031
0.463867
0.465678
0.466773
0.467374
0.467645
0.467699
0.467607
0.467414
0.467141
0.466796
0.466377
0.46588
0.465289
0.464595
0.463781
0.462835
0.461739
0.460472
0.459026
0.457383
0.455518
0.453421
0.451078
0.448464
0.445562
0.442357
0.438839
0.434981
0.430772
0.426222
0.421311
0.41602
0.410365
0.404312
0.397799
0.3908
0.383263
0.375156
0.36644
0.357001
0.346733
0.335519
0.323183
0.30947
0.294042
0.276526
0.256568
0.234426
0.208584
0.29249
0.351016
0.379913
0.400941
0.417996
0.43173
0.442511
0.450702
0.456679
0.460914
0.463781
0.465629
0.466754
0.467376
0.467658
0.467715
0.467621
0.467422
0.467143
0.466793
0.466372
0.465875
0.465289
0.464603
0.463801
0.462871
0.461794
0.460547
0.459125
0.457507
0.455667
0.453596
0.451278
0.448686
0.445806
0.44262
0.439117
0.435271
0.43107
0.426522
0.42161
0.416313
0.410647
0.40458
0.398048
0.391026
0.383465
0.375331
0.366589
0.357125
0.346834
0.335605
0.323262
0.309554
0.294147
0.276671
0.256774
0.234692
0.208631
0.300644
0.35569
0.382924
0.402723
0.41896
0.432175
0.442647
0.450675
0.456587
0.460813
0.4637
0.465578
0.466731
0.467374
0.467668
0.46773
0.467635
0.467432
0.467149
0.466795
0.466372
0.465876
0.465294
0.464617
0.463827
0.462911
0.461852
0.460626
0.459227
0.457632
0.455817
0.45377
0.451475
0.448907
0.446047
0.442879
0.439391
0.435556
0.431362
0.426818
0.421904
0.416601
0.410925
0.404844
0.398294
0.391251
0.383665
0.375506
0.366738
0.357249
0.346938
0.335693
0.323344
0.30964
0.294253
0.276816
0.256979
0.234955
0.20868
0.309997
0.361502
0.386709
0.404964
0.420186
0.432774
0.442876
0.450705
0.456526
0.460728
0.463625
0.465526
0.466704
0.467367
0.467675
0.467742
0.467649
0.467444
0.467158
0.466801
0.466377
0.465883
0.465306
0.464636
0.463857
0.462956
0.461915
0.460709
0.459331
0.457759
0.455967
0.453944
0.451672
0.449125
0.446284
0.443134
0.43966
0.435836
0.43165
0.427109
0.422194
0.416885
0.4112
0.405104
0.398537
0.391473
0.383865
0.375681
0.366888
0.357376
0.347044
0.335784
0.323427
0.309729
0.294361
0.276962
0.257183
0.235213
0.208729
0.32188
0.368988
0.391453
0.407717
0.421684
0.433523
0.443192
0.450786
0.456495
0.460658
0.463555
0.465475
0.466674
0.467357
0.467678
0.467753
0.467662
0.467458
0.467169
0.466811
0.466387
0.465895
0.465323
0.464661
0.463893
0.463007
0.461982
0.460794
0.459437
0.457887
0.456118
0.454117
0.451867
0.44934
0.446519
0.443385
0.439925
0.436112
0.431932
0.427394
0.422478
0.417165
0.41147
0.405362
0.398778
0.391694
0.384064
0.375855
0.367038
0.357503
0.347151
0.335877
0.323513
0.309819
0.29447
0.277108
0.257385
0.235468
0.20878
0.338638
0.378859
0.397308
0.410983
0.423432
0.434401
0.443581
0.450909
0.456488
0.460599
0.46349
0.465422
0.466642
0.467343
0.467678
0.467762
0.467676
0.467473
0.467184
0.466825
0.466402
0.465912
0.465345
0.464692
0.463935
0.463061
0.462052
0.460883
0.459546
0.458016
0.456269
0.454289
0.45206
0.449553
0.44675
0.443633
0.440186
0.436383
0.43221
0.427675
0.422758
0.41744
0.411737
0.405616
0.399016
0.391914
0.384261
0.37603
0.36719
0.357632
0.347261
0.335971
0.323601
0.309911
0.29458
0.277255
0.257587
0.23572
0.208832
0.364007
0.39191
0.404294
0.414672
0.425358
0.435366
0.444017
0.45106
0.456497
0.460549
0.463426
0.465368
0.466606
0.467326
0.467676
0.46777
0.46769
0.467489
0.467201
0.466843
0.466421
0.465934
0.465373
0.464727
0.463981
0.46312
0.462127
0.460975
0.459656
0.458147
0.45642
0.454461
0.452252
0.449764
0.446978
0.443876
0.440442
0.436649
0.432483
0.427951
0.423034
0.417711
0.411999
0.405867
0.399252
0.392131
0.384458
0.376205
0.367342
0.357763
0.347372
0.336068
0.323692
0.310005
0.294692
0.277402
0.257788
0.235968
0.208885
0.401865
0.408419
0.412095
0.418557
0.427345
0.436357
0.44447
0.451224
0.456515
0.460503
0.463364
0.465313
0.466568
0.467305
0.467671
0.467777
0.467703
0.467506
0.467221
0.466864
0.466444
0.465961
0.465405
0.464767
0.464031
0.463184
0.462205
0.46107
0.459769
0.458279
0.456572
0.454632
0.452442
0.449973
0.447204
0.444116
0.440694
0.436911
0.432751
0.428222
0.423304
0.417977
0.412258
0.406114
0.399485
0.392347
0.384654
0.376379
0.367494
0.357894
0.347485
0.336167
0.323784
0.310101
0.294806
0.27755
0.257988
0.236213
0.20894
0.447234
0.425441
0.419663
0.422244
0.429237
0.437313
0.444913
0.451387
0.456535
0.460459
0.463301
0.465255
0.466526
0.467282
0.467664
0.467782
0.467717
0.467525
0.467243
0.466889
0.466472
0.465993
0.465443
0.464813
0.464087
0.463251
0.462287
0.461168
0.459884
0.458412
0.456724
0.454803
0.452632
0.450179
0.447426
0.444353
0.440943
0.437168
0.433015
0.428489
0.42357
0.418239
0.412513
0.406358
0.399715
0.39256
0.384849
0.376553
0.367647
0.358027
0.347599
0.336268
0.323879
0.310199
0.29492
0.277699
0.258186
0.236454
0.208995
0.442723
0.433144
0.42499
0.425264
0.430904
0.438188
0.44533
0.451544
0.456554
0.460414
0.463237
0.465197
0.466482
0.467256
0.467655
0.467786
0.46773
0.467545
0.467268
0.466917
0.466504
0.466029
0.465485
0.464863
0.464146
0.463323
0.462372
0.461268
0.460002
0.458547
0.456876
0.454974
0.452819
0.450384
0.447646
0.444586
0.441187
0.437421
0.433274
0.428751
0.423832
0.418497
0.412764
0.406599
0.399943
0.392772
0.385042
0.376727
0.367801
0.35816
0.347715
0.336371
0.323975
0.310299
0.295036
0.277848
0.258384
0.236693
0.209052
0.394286
0.42823
0.427264
0.427471
0.432327
0.438984
0.445721
0.451694
0.456574
0.460371
0.463174
0.465137
0.466437
0.467229
0.467644
0.467789
0.467744
0.467567
0.467295
0.466948
0.466539
0.46607
0.465532
0.464917
0.464211
0.463398
0.46246
0.461372
0.460121
0.458683
0.457029
0.455144
0.453006
0.450586
0.447863
0.444815
0.441427
0.43767
0.433528
0.429008
0.424089
0.418751
0.413011
0.406837
0.400168
0.392982
0.385235
0.376901
0.367955
0.358295
0.347833
0.336476
0.324074
0.3104
0.295154
0.277997
0.258581
0.236928
0.20911
0.354561
0.422403
0.428153
0.429192
0.433602
0.439738
0.446104
0.451847
0.456598
0.460332
0.463113
0.465077
0.466391
0.4672
0.467633
0.467792
0.467759
0.46759
0.467324
0.466983
0.466579
0.466115
0.465583
0.464976
0.464279
0.463477
0.462552
0.461478
0.460242
0.45882
0.457182
0.455313
0.453191
0.450786
0.448077
0.445042
0.441664
0.437915
0.433779
0.429261
0.424342
0.419001
0.413255
0.407072
0.400391
0.393191
0.385426
0.377074
0.368109
0.358431
0.347952
0.336583
0.324174
0.310504
0.295273
0.278147
0.258777
0.237161
0.209169
0.323529
0.416734
0.428337
0.430635
0.434802
0.440487
0.446499
0.452013
0.456633
0.460301
0.463057
0.465021
0.466346
0.467172
0.467621
0.467796
0.467774
0.467614
0.467356
0.46702
0.466622
0.466163
0.465638
0.465039
0.464351
0.46356
0.462647
0.461586
0.460365
0.458958
0.457336
0.455482
0.453375
0.450985
0.448288
0.445265
0.441897
0.438156
0.434025
0.42951
0.424591
0.419247
0.413495
0.407304
0.400611
0.393397
0.385617
0.377247
0.368263
0.358567
0.348073
0.336692
0.324277
0.310609
0.295393
0.278297
0.258972
0.237391
0.209229
0.299206
0.410776
0.427875
0.431806
0.435933
0.441242
0.446917
0.452202
0.456685
0.460281
0.463008
0.464968
0.466303
0.467144
0.46761
0.467799
0.46779
0.46764
0.46739
0.467061
0.466668
0.466216
0.465697
0.465106
0.464427
0.463647
0.462746
0.461697
0.460489
0.459097
0.45749
0.45565
0.453558
0.451181
0.448497
0.445485
0.442126
0.438392
0.434267
0.429755
0.424836
0.419489
0.413732
0.407532
0.400829
0.393601
0.385806
0.377419
0.368418
0.358705
0.348195
0.336802
0.324381
0.310716
0.295515
0.278448
0.259166
0.237618
0.20929
0.280019
0.404572
0.426851
0.432677
0.436973
0.441998
0.447362
0.452418
0.45676
0.460278
0.46297
0.464922
0.466264
0.467119
0.4676
0.467804
0.467808
0.467668
0.467426
0.467104
0.466718
0.466272
0.46576
0.465177
0.464507
0.463737
0.462846
0.46181
0.460616
0.459237
0.457643
0.455818
0.453739
0.451375
0.448703
0.445701
0.442352
0.438625
0.434504
0.429995
0.425076
0.419727
0.413965
0.407757
0.401044
0.393804
0.385994
0.377591
0.368573
0.358843
0.348319
0.336914
0.324487
0.310825
0.295638
0.2786
0.259359
0.237842
0.209352
0.264724
0.398383
0.425408
0.433252
0.437906
0.442746
0.447832
0.452664
0.456859
0.460293
0.462945
0.464885
0.46623
0.467097
0.467592
0.467811
0.467827
0.467698
0.467465
0.467151
0.466771
0.466332
0.465827
0.465252
0.46459
0.46383
0.46295
0.461926
0.460743
0.459377
0.457798
0.455985
0.453919
0.451567
0.448906
0.445915
0.442574
0.438854
0.434738
0.430231
0.425313
0.419961
0.414194
0.407979
0.401257
0.394004
0.38618
0.377762
0.368728
0.358982
0.348443
0.337027
0.324595
0.310935
0.295762
0.278752
0.259551
0.238063
0.209415
0.252386
0.392379
0.423663
0.433551
0.438718
0.443472
0.448321
0.45294
0.456986
0.460329
0.462935
0.464857
0.466203
0.467078
0.467587
0.467819
0.467848
0.46773
0.467506
0.4672
0.466828
0.466395
0.465898
0.46533
0.464677
0.463926
0.463057
0.462043
0.460873
0.459519
0.457952
0.456152
0.454098
0.451758
0.449107
0.446125
0.442792
0.439079
0.434968
0.430463
0.425545
0.420191
0.41442
0.408199
0.401467
0.394203
0.386366
0.377932
0.368883
0.359122
0.348569
0.337143
0.324705
0.311048
0.295887
0.278904
0.259742
0.238282
0.20948
0.242322
0.386634
0.421697
0.433598
0.439403
0.444165
0.448822
0.453242
0.457139
0.460387
0.462941
0.464841
0.466183
0.467065
0.467586
0.46783
0.467872
0.467765
0.46755
0.467252
0.466887
0.466462
0.465972
0.465411
0.464767
0.464025
0.463165
0.462163
0.461004
0.459661
0.458106
0.456318
0.454276
0.451946
0.449306
0.446333
0.443008
0.4393
0.435193
0.430691
0.425774
0.420418
0.414643
0.408415
0.401674
0.3944
0.38655
0.378103
0.369038
0.359263
0.348696
0.337259
0.324816
0.311161
0.296014
0.279056
0.259933
0.238499
0.209545
0.234028
0.381181
0.419573
0.433421
0.439958
0.444815
0.449328
0.453566
0.457317
0.460468
0.462965
0.464838
0.466172
0.467058
0.467588
0.467844
0.467897
0.467801
0.467596
0.467307
0.46695
0.466532
0.466049
0.465496
0.46486
0.464126
0.463277
0.462284
0.461136
0.459804
0.45826
0.456484
0.454452
0.452133
0.449502
0.446538
0.44322
0.439518
0.435415
0.430916
0.425998
0.420641
0.414862
0.408628
0.401879
0.394595
0.386733
0.378272
0.369194
0.359404
0.348825
0.337377
0.324929
0.311276
0.296142
0.279209
0.260122
0.238713
0.209611
0.227125
0.376035
0.417341
0.433047
0.440382
0.445411
0.449829
0.453909
0.457519
0.460569
0.463005
0.464847
0.46617
0.467057
0.467594
0.467861
0.467926
0.46784
0.467645
0.467364
0.467015
0.466604
0.466129
0.465584
0.464955
0.464231
0.46339
0.462407
0.461269
0.459948
0.458414
0.456648
0.454627
0.452317
0.449696
0.446739
0.443428
0.439732
0.435633
0.431136
0.426219
0.420861
0.415078
0.408838
0.402082
0.394788
0.386914
0.378441
0.369349
0.359545
0.348954
0.337497
0.325044
0.311393
0.296271
0.279363
0.260311
0.238924
0.209678
0.221326
0.371198
0.415042
0.432505
0.440683
0.445949
0.45032
0.454264
0.457742
0.460691
0.463063
0.464869
0.466177
0.467062
0.467605
0.467882
0.467957
0.467882
0.467696
0.467424
0.467083
0.46668
0.466212
0.465674
0.465054
0.464337
0.463505
0.462532
0.461403
0.460092
0.458569
0.456812
0.4548
0.4525
0.449887
0.446938
0.443633
0.439943
0.435848
0.431353
0.426436
0.421076
0.41529
0.409046
0.402282
0.394979
0.387095
0.378609
0.369504
0.359687
0.349084
0.337618
0.32516
0.311512
0.296401
0.279517
0.260498
0.239134
0.209746
0.216408
0.366664
0.412713
0.431825
0.440867
0.446426
0.450793
0.454626
0.457981
0.460832
0.463136
0.464904
0.466193
0.467074
0.467621
0.467906
0.467991
0.467926
0.467749
0.467487
0.467154
0.466758
0.466298
0.465768
0.465155
0.464446
0.463623
0.462658
0.461539
0.460237
0.458723
0.456976
0.454973
0.452681
0.450076
0.447134
0.443836
0.44015
0.436059
0.431566
0.42665
0.421289
0.4155
0.40925
0.40248
0.395168
0.387274
0.378776
0.369659
0.35983
0.349215
0.33774
0.325278
0.311631
0.296532
0.279671
0.260685
0.239341
0.209815
0.212198
0.36242
0.410382
0.431032
0.440946
0.44684
0.451243
0.454989
0.458233
0.460988
0.463224
0.46495
0.466219
0.467093
0.467642
0.467933
0.468027
0.467972
0.467805
0.467551
0.467227
0.466839
0.466386
0.465863
0.465258
0.464558
0.463742
0.462786
0.461675
0.460382
0.458877
0.457138
0.455144
0.45286
0.450262
0.447327
0.444035
0.440354
0.436266
0.431775
0.42686
0.421498
0.415706
0.409452
0.402675
0.395355
0.387451
0.378943
0.369814
0.359973
0.349347
0.337864
0.325397
0.311752
0.296664
0.279825
0.260871
0.239545
0.209884
0.208559
0.358453
0.408074
0.430154
0.440931
0.447192
0.451667
0.45535
0.458494
0.461157
0.463325
0.465008
0.466253
0.467118
0.467667
0.467964
0.468067
0.468021
0.467863
0.467618
0.467302
0.466922
0.466477
0.465961
0.465364
0.464671
0.463863
0.462915
0.461812
0.460527
0.45903
0.4573
0.455314
0.453037
0.450447
0.447518
0.444231
0.440554
0.43647
0.431981
0.427067
0.421703
0.415909
0.409651
0.402868
0.395541
0.387627
0.379109
0.369969
0.360117
0.34948
0.337988
0.325517
0.311875
0.296797
0.27998
0.261056
0.239748
0.209955
0.205378
0.354753
0.405812
0.429213
0.440834
0.447484
0.452059
0.455702
0.458758
0.461335
0.463437
0.465074
0.466294
0.467148
0.467696
0.467998
0.468108
0.468072
0.467923
0.467687
0.467379
0.467007
0.46657
0.466062
0.465471
0.464785
0.463985
0.463045
0.46195
0.460673
0.459184
0.457461
0.455482
0.453213
0.450629
0.447706
0.444424
0.440752
0.43667
0.432184
0.42727
0.421906
0.416109
0.409847
0.403059
0.395724
0.387803
0.379274
0.370123
0.36026
0.349614
0.338114
0.325639
0.311999
0.296932
0.280135
0.26124
0.239949
0.210026
0.202562
0.351313
0.403617
0.428232
0.440666
0.447718
0.452418
0.45604
0.459023
0.46152
0.463556
0.465149
0.466342
0.467184
0.46773
0.468035
0.468153
0.468124
0.467985
0.467758
0.467459
0.467095
0.466664
0.466164
0.465581
0.464902
0.464109
0.463176
0.462088
0.460819
0.459337
0.457621
0.455649
0.453387
0.450808
0.447891
0.444614
0.440946
0.436868
0.432383
0.427469
0.422105
0.416306
0.41004
0.403247
0.395906
0.387976
0.379438
0.370278
0.360404
0.349749
0.338241
0.325762
0.312124
0.297067
0.280291
0.261423
0.240147
0.210099
0.200026
0.348137
0.40151
0.427232
0.440439
0.447895
0.452738
0.456359
0.459281
0.461706
0.46368
0.465229
0.466396
0.467224
0.467766
0.468075
0.468199
0.468179
0.468049
0.467831
0.46754
0.467184
0.466761
0.466268
0.465692
0.46502
0.464234
0.463308
0.462227
0.460964
0.459489
0.457781
0.455815
0.453558
0.450986
0.448074
0.444801
0.441137
0.437061