/*--------------------------------*- C++ -*----------------------------------*\
| =========                 |                                                 |
| \\      /  F ield         | OpenFOAM: The Open Source CFD Toolbox           |
|  \\    /   O peration     | Version:  3.0.1                                 |
|   \\  /    A nd           | Web:      www.OpenFOAM.org                      |
|    \\/     M anipulation  |                                                 |
\*---------------------------------------------------------------------------*/
FoamFile
{
    version     2.0;
    format      ascii;
    class       volScalarField;
    location    "2629";
    object      nut;
}
// * * * * * * * * * * * * * * * * * * * * * * * * * * * * * * * * * * * * * //

dimensions      [0 2 -1 0 0 0 0];

internalField   nonuniform List<scalar> 
14431
(
0.000251888
0.000785321
0.00131507
0.00186163
0.00254363
0.00445557
0.00545662
0.00638134
0.00730685
0.00824932
0.00920927
0.0101817
0.0111695
0.0121705
0.0131822
0.0142017
0.0152258
0.0162513
0.0172745
0.0182965
0.0193086
0.0203076
0.0212937
0.0222592
0.0232046
0.0241225
0.0250139
0.0258788
0.0267073
0.0275005
0.028259
0.0289772
0.0296536
0.0302888
0.0308807
0.0314276
0.0319277
0.0323806
0.032784
0.0331341
0.0334295
0.0336675
0.0338432
0.0339528
0.0339895
0.0339435
0.033802
0.0335493
0.0331671
0.0326302
0.0319089
0.0309696
0.0297721
0.0282685
0.0264053
0.0241373
0.021451
0.018487
0.0170407
0.000237071
0.000787482
0.00131699
0.00188874
0.00268355
0.00433158
0.00540722
0.00636109
0.00729604
0.00824184
0.00920236
0.0101743
0.0111609
0.0121602
0.0131699
0.0141872
0.0152091
0.0162322
0.0172531
0.018273
0.0192831
0.0202804
0.0212651
0.0222294
0.0231743
0.0240918
0.0249835
0.0258489
0.0266784
0.027473
0.0282333
0.0289535
0.0296322
0.0302697
0.0308641
0.0314133
0.0319155
0.0323705
0.0327754
0.0331267
0.0334228
0.0336612
0.0338366
0.0339455
0.0339812
0.0339338
0.0337907
0.0335365
0.0331532
0.0326159
0.0318951
0.030958
0.0297647
0.0282679
0.0264142
0.0241585
0.0214874
0.0185522
0.0170513
0.000225558
0.000792469
0.00132331
0.00192283
0.00278636
0.00425353
0.00536008
0.00633834
0.00728369
0.00823354
0.00919508
0.0101667
0.0111522
0.0121499
0.0131577
0.0141729
0.0151925
0.0162133
0.017232
0.0182498
0.0192579
0.0202536
0.0212369
0.0222002
0.0231444
0.0240616
0.0249535
0.0258195
0.0266499
0.027446
0.0282079
0.0289301
0.0296109
0.0302507
0.0308474
0.0313989
0.0319032
0.0323601
0.0327666
0.033119
0.0334159
0.0336545
0.0338297
0.033938
0.0339727
0.033924
0.0337795
0.0335239
0.0331394
0.0326018
0.0318816
0.0309467
0.0297576
0.0282674
0.0264231
0.0241795
0.021524
0.0186161
0.0170622
0.000216557
0.000799166
0.0013337
0.00196048
0.00286361
0.00420432
0.0053185
0.00631479
0.00727013
0.00822444
0.00918737
0.0101589
0.0111434
0.0121396
0.0131455
0.0141586
0.015176
0.0161946
0.0172111
0.0182269
0.0192331
0.0202271
0.0212091
0.0221714
0.023115
0.0240319
0.024924
0.0257905
0.0266219
0.0274193
0.0281829
0.0289069
0.0295898
0.0302319
0.0308308
0.0313845
0.0318908
0.0323495
0.0327576
0.0331111
0.0334087
0.0336476
0.0338226
0.0339304
0.0339641
0.0339142
0.0337683
0.0335114
0.033126
0.032588
0.0318685
0.0309357
0.0297507
0.0282671
0.026432
0.0242006
0.0215606
0.018679
0.0170734
0.00020945
0.000807183
0.00134772
0.00199943
0.00292328
0.00417359
0.0052833
0.00629168
0.00725582
0.00821461
0.00917918
0.0101508
0.0111344
0.0121292
0.0131333
0.0141444
0.0151596
0.0161761
0.0171905
0.0182043
0.0192086
0.0202011
0.0211818
0.0221431
0.0230861
0.0240027
0.024895
0.0257621
0.0265944
0.027393
0.0281581
0.028884
0.0295689
0.0302131
0.0308142
0.0313699
0.0318783
0.0323387
0.0327483
0.0331029
0.0334013
0.0336404
0.0338153
0.0339225
0.0339553
0.0339043
0.0337572
0.033499
0.0331127
0.0325744
0.0318557
0.0309251
0.0297441
0.0282669
0.026441
0.0242216
0.0215972
0.0187407
0.0170849
0.000203771
0.000816331
0.00136482
0.00203828
0.00297081
0.00415488
0.00525418
0.00626976
0.00724114
0.00820419
0.00917051
0.0101423
0.0111252
0.0121187
0.0131211
0.0141302
0.0151434
0.0161578
0.0171702
0.0181821
0.0191846
0.0201756
0.0211549
0.0221153
0.0230577
0.0239741
0.0248665
0.0257341
0.0265673
0.0273671
0.0281338
0.0288614
0.0295482
0.0301944
0.0307975
0.0313553
0.0318656
0.0323278
0.0327387
0.0330944
0.0333935
0.033633
0.0338077
0.0339145
0.0339465
0.0338944
0.0337461
0.0334868
0.0330996
0.0325612
0.0318432
0.0309148
0.0297378
0.028267
0.0264501
0.0242426
0.0216339
0.0188014
0.0170967
0.000199166
0.000826481
0.00138443
0.00207618
0.00300986
0.00414409
0.00523039
0.00624944
0.00722642
0.00819329
0.00916139
0.0101335
0.0111158
0.012108
0.0131088
0.0141161
0.0151274
0.0161397
0.0171501
0.0181601
0.019161
0.0201504
0.0211286
0.022088
0.0230298
0.023946
0.0248385
0.0257066
0.0265406
0.0273416
0.0281097
0.028839
0.0295276
0.0301758
0.0307809
0.0313407
0.0318527
0.0323166
0.0327289
0.0330857
0.0333854
0.0336252
0.0337999
0.0339062
0.0339375
0.0338844
0.033735
0.0334747
0.0330868
0.0325482
0.031831
0.0309047
0.0297318
0.0282672
0.0264592
0.0242636
0.0216705
0.018861
0.0171087
0.000195358
0.000837557
0.00140593
0.00211264
0.00304286
0.00413857
0.00521108
0.00623085
0.00721191
0.00818205
0.00915184
0.0101244
0.0111061
0.0120973
0.0130966
0.0141021
0.0151115
0.0161219
0.0171304
0.0181386
0.0191377
0.0201258
0.0211027
0.0220613
0.0230025
0.0239184
0.024811
0.0256796
0.0265144
0.0273165
0.0280859
0.0288168
0.0295072
0.0301573
0.0307643
0.0313259
0.0318397
0.0323051
0.0327188
0.0330766
0.0333771
0.0336172
0.0337918
0.0338977
0.0339283
0.0338744
0.033724
0.0334627
0.0330741
0.0325354
0.0318191
0.030895
0.029726
0.0282676
0.0264684
0.0242846
0.0217071
0.0189196
0.0171211
0.000192117
0.000849523
0.0014287
0.00214732
0.00307141
0.00413654
0.00519543
0.00621398
0.00719777
0.0081706
0.00914193
0.0101149
0.0110962
0.0120863
0.0130842
0.0140881
0.0150957
0.0161042
0.0171109
0.0181173
0.0191149
0.0201015
0.0210774
0.022035
0.0229757
0.0238914
0.0247841
0.0256531
0.0264886
0.0272918
0.0280626
0.028795
0.029487
0.0301388
0.0307477
0.0313111
0.0318266
0.0322935
0.0327085
0.0330673
0.0333684
0.0336089
0.0337835
0.0338891
0.0339191
0.0338643
0.033713
0.0334508
0.0330617
0.032523
0.0318075
0.0308856
0.0297205
0.0282682
0.0264777
0.0243056
0.0217435
0.018977
0.0171336
0.000189573
0.000862192
0.00145211
0.00217998
0.0030965
0.0041368
0.00518273
0.00619873
0.00718411
0.00815905
0.00913173
0.0101051
0.0110861
0.0120753
0.0130719
0.0140742
0.01508
0.0160868
0.0170917
0.0180965
0.0190926
0.0200778
0.0210525
0.0220094
0.0229495
0.0238649
0.0247577
0.0256271
0.0264634
0.0272675
0.0280395
0.0287734
0.029467
0.0301205
0.0307311
0.0312963
0.0318134
0.0322818
0.0326979
0.0330577
0.0333595
0.0336003
0.0337749
0.0338803
0.0339097
0.0338542
0.033702
0.0334391
0.0330495
0.0325108
0.0317963
0.0308766
0.0297154
0.028269
0.026487
0.0243264
0.0217797
0.0190334
0.0171464
3.05046e-05
3.23365e-05
3.41307e-05
3.57125e-05
3.70671e-05
3.82343e-05
3.92581e-05
4.01703e-05
4.09885e-05
4.1712e-05
4.22436e-05
4.25599e-05
4.26319e-05
4.24233e-05
4.18899e-05
4.09814e-05
3.96521e-05
3.79634e-05
3.73737e-05
5.57763e-05
3.81331e-05
5.35707e-05
6.6858e-05
7.68123e-05
8.34891e-05
8.72429e-05
8.85269e-05
8.78064e-05
8.55089e-05
8.18935e-05
7.61004e-05
6.94815e-05
6.3044e-05
5.74186e-05
5.28608e-05
4.93743e-05
4.68857e-05
4.59021e-05
5.01982e-05
0.000106134
4.24949e-05
5.98075e-05
7.8141e-05
9.34686e-05
0.000104884
0.00011257
0.000117105
0.000119128
0.000119202
0.00011772
0.000114232
0.000108651
0.000101076
9.20816e-05
8.26773e-05
7.39818e-05
6.69122e-05
6.22073e-05
6.27736e-05
0.000142549
4.56135e-05
6.4477e-05
8.77809e-05
0.000107678
0.000122294
0.000131946
0.000137606
0.000140283
0.00014081
0.000139766
0.000137228
0.000133186
0.000127393
0.000119572
0.00010982
9.89289e-05
8.82161e-05
7.79848e-05
7.4207e-05
0.000172975
4.79251e-05
6.94603e-05
9.84789e-05
0.000122554
0.00013928
0.000149626
0.000155217
0.000157526
0.00015766
0.000156332
0.000153689
0.000149854
0.000144761
0.000138048
0.000129262
0.000118341
0.000105844
9.03361e-05
8.52653e-05
0.000201166
4.96611e-05
7.518e-05
0.000110207
0.00013739
0.000154818
0.000164643
0.000169239
0.000170525
0.000169865
0.000168062
0.000165189
0.000161298
0.000156421
0.000150289
0.000142343
0.000132003
0.000118785
9.87825e-05
9.68529e-05
0.000229436
5.09624e-05
8.17961e-05
0.000122409
0.000151129
0.000167951
0.000176378
0.000179364
0.000179196
0.000177499
0.000175164
0.000172162
0.000168354
0.00016372
0.000158024
0.000150733
0.000141042
0.000127486
0.000103872
0.000109948
0.000259175
5.19242e-05
8.92917e-05
0.0001343
0.000162992
0.00017842
0.00018505
0.000186106
0.000184191
0.000181271
0.000178378
0.000175376
0.000171852
0.000167617
0.000162396
0.000155694
0.000146608
0.000132705
0.000106623
0.000125627
0.00029132
5.26151e-05
9.74656e-05
0.000145104
0.000172699
0.000186567
0.000191393
0.000190385
0.000186509
0.000182249
0.000178846
0.00017598
0.000172876
0.000169125
0.000164403
0.000158253
0.000149683
0.000135165
0.000108389
0.00014512
0.000326673
5.3088e-05
0.000105918
0.000154256
0.000180384
0.000192985
0.000196228
0.000193143
0.000187176
0.000181645
0.000178064
0.000175549
0.000172819
0.000169398
0.00016505
0.00015935
0.000151115
0.000135489
0.000110912
0.000169872
0.000366093
5.33851e-05
0.00011406
0.000161488
0.000186364
0.000198217
0.000200247
0.000195222
0.000187132
0.000180646
0.000177895
0.000176155
0.000173307
0.00016966
0.000165359
0.000159894
0.000151625
0.000134269
0.000116477
0.000201724
0.000411289
5.35425e-05
0.000121164
0.000166762
0.000190917
0.000202615
0.00020399
0.000197445
0.000187285
0.000179819
0.000179219
0.000179334
0.000175504
0.000170925
0.000166294
0.000160718
0.000151712
0.000132352
0.000128254
0.000242761
0.000463323
5.35952e-05
0.00012646
0.000170132
0.000194152
0.000206311
0.000207876
0.000200784
0.000189015
0.000179214
0.000177959
0.000180862
0.000178099
0.000173293
0.000168311
0.0001622
0.000151332
0.000131712
0.000150781
0.000295192
0.000521158
5.35756e-05
0.000129649
0.000171874
0.000196517
0.000210268
0.000213687
0.000208066
0.000196416
0.000184088
0.000177998
0.000179251
0.000177246
0.000173225
0.000168084
0.000160703
0.000148353
0.000137398
0.000190725
0.000361565
0.000581591
5.34796e-05
0.000131194
0.000171964
0.000197827
0.000214426
0.000221747
0.000220415
0.000212216
0.000200342
0.000189259
0.00018238
0.000175286
0.000168947
0.000162436
0.000154283
0.000146758
0.000162118
0.000253914
0.000435416
0.000646819
5.32816e-05
0.000130529
0.000169574
0.000196926
0.000217339
0.000230432
0.000236308
0.000235766
0.000230219
0.000221459
0.000211023
0.000198807
0.000188498
0.000181253
0.000178563
0.000188032
0.000231787
0.000341935
0.000519073
0.000720362
5.29306e-05
0.00012677
0.000163283
0.000191615
0.000215832
0.000235402
0.000250096
0.000260093
0.000265839
0.00026782
0.000266316
0.000261116
0.000256251
0.000255677
0.000263236
0.000287058
0.000343226
0.000452228
0.000616551
0.000807019
5.23408e-05
0.000118681
0.000151007
0.00017848
0.000204657
0.000229068
0.000251305
0.000271182
0.000288699
0.000303924
0.000316878
0.000327409
0.000336368
0.000348832
0.000369351
0.000404707
0.000466478
0.00056999
0.0007222
0.000904441
5.1398e-05
0.00010465
0.000130145
0.000153243
0.000177042
0.000201383
0.000225936
0.000250413
0.000274657
0.000298648
0.000322461
0.000346194
0.000369806
0.000395029
0.000427485
0.00047286
0.000539772
0.000640357
0.000785068
0.00096648
5.00048e-05
8.29621e-05
9.8658e-05
0.000112954
0.000128198
0.000144645
0.000162324
0.000181199
0.00020125
0.000222539
0.000245246
0.00026965
0.000296038
0.000324249
0.000356457
0.000398361
0.000455918
0.000538187
0.000657157
0.00082207
4.58755e-05
5.39667e-05
6.00722e-05
6.49364e-05
6.91688e-05
7.30843e-05
7.67925e-05
8.03557e-05
8.38752e-05
8.74434e-05
9.11523e-05
9.51034e-05
9.94217e-05
0.000104279
0.00010987
0.000116448
0.000124443
0.000134582
0.000148362
0.000171062
0.000224369
0.000876012
0.00147475
0.00220941
0.00311809
0.00413844
0.00517264
0.00618535
0.00717138
0.00814783
0.00912161
0.0100953
0.011076
0.0120644
0.0130598
0.0140607
0.015065
0.0160701
0.0170734
0.0180766
0.0190712
0.0200552
0.0210289
0.0219849
0.0229245
0.0238397
0.0247326
0.0256024
0.0264393
0.0272443
0.0280174
0.0287526
0.0294478
0.0301029
0.0307151
0.0312818
0.0318004
0.0322702
0.0326875
0.0330482
0.0333507
0.0335918
0.0337665
0.0338716
0.0339005
0.0338444
0.0336915
0.0334279
0.0330378
0.0324993
0.0317857
0.0308681
0.0297106
0.02827
0.0264962
0.0243468
0.0218147
0.019087
0.017159
0.000262739
0.00089071
0.00149659
0.00223671
0.00313749
0.00414096
0.00516433
0.00617326
0.00715925
0.00813675
0.00911141
0.0100854
0.0110659
0.0120535
0.0130478
0.0140474
0.0150502
0.0160538
0.0170555
0.0180573
0.0190505
0.0200333
0.021006
0.0219613
0.0229003
0.0238154
0.0247083
0.0255784
0.0264159
0.0272218
0.027996
0.0287324
0.0294289
0.0300855
0.0306992
0.0312674
0.0317874
0.0322585
0.0326769
0.0330385
0.0333416
0.0335831
0.0337578
0.0338627
0.0338913
0.0338345
0.033681
0.0334168
0.0330265
0.0324881
0.0317755
0.03086
0.0297062
0.0282711
0.0265053
0.0243667
0.021849
0.0191389
0.0171717
0.000302956
0.000906993
0.00151773
0.00226212
0.00315519
0.00414405
0.00515739
0.00616221
0.00714761
0.00812574
0.00910107
0.0100753
0.0110555
0.0120425
0.0130358
0.0140341
0.0150355
0.0160376
0.0170379
0.0180382
0.0190302
0.0200118
0.0209835
0.0219381
0.0228767
0.0237914
0.0246844
0.0255548
0.0263929
0.0271995
0.0279748
0.0287124
0.0294102
0.0300682
0.0306833
0.0312529
0.0317743
0.0322466
0.0326661
0.0330286
0.0333322
0.0335741
0.0337489
0.0338537
0.0338819
0.0338247
0.0336706
0.0334059
0.0330153
0.0324772
0.0317655
0.0308522
0.0297019
0.0282725
0.0265145
0.0243866
0.0218831
0.01919
0.0171845
0.000344209
0.000925399
0.00153883
0.00228594
0.00317157
0.00414758
0.00515161
0.00615214
0.00713648
0.00811487
0.00909065
0.0100651
0.011045
0.0120313
0.0130236
0.0140208
0.0150208
0.0160216
0.0170205
0.0180194
0.0190101
0.0199907
0.0209615
0.0219153
0.0228534
0.023768
0.024661
0.0255317
0.0263702
0.0271776
0.0279538
0.0286925
0.0293916
0.0300509
0.0306674
0.0312384
0.0317611
0.0322345
0.0326551
0.0330183
0.0333226
0.0335648
0.0337398
0.0338445
0.0338724
0.0338147
0.0336601
0.033395
0.0330042
0.0324664
0.0317558
0.0308446
0.029698
0.028274
0.0265238
0.0244065
0.0219171
0.0192404
0.0171975
0.000386136
0.000946283
0.00156057
0.0023086
0.00318698
0.00415151
0.00514685
0.00614297
0.00712589
0.00810421
0.00908023
0.0100547
0.0110344
0.0120201
0.0130115
0.0140075
0.0150063
0.0160057
0.0170032
0.0180009
0.0189904
0.0199699
0.0209398
0.0218929
0.0228306
0.0237449
0.0246379
0.0255089
0.0263479
0.027156
0.0279331
0.0286729
0.0293731
0.0300337
0.0306515
0.0312237
0.0317476
0.0322222
0.0326438
0.0330079
0.0333128
0.0335553
0.0337304
0.033835
0.0338627
0.0338046
0.0336496
0.0333842
0.0329933
0.0324559
0.0317464
0.0308373
0.0296942
0.0282756
0.0265333
0.0244265
0.021951
0.01929
0.0172108
0.000428603
0.000969844
0.00158351
0.00233058
0.00320181
0.00415589
0.00514305
0.0061347
0.00711588
0.00809381
0.00906986
0.0100443
0.0110236
0.0120087
0.0129993
0.0139942
0.0149918
0.01599
0.0169862
0.0179827
0.018971
0.0199495
0.0209185
0.021871
0.0228082
0.0237223
0.0246153
0.0254865
0.026326
0.0271347
0.0279126
0.0286534
0.0293548
0.0300165
0.0306355
0.031209
0.0317341
0.0322098
0.0326323
0.0329971
0.0333026
0.0335456
0.0337208
0.0338254
0.0338529
0.0337945
0.0336391
0.0333734
0.0329825
0.0324455
0.0317371
0.0308302
0.0296907
0.0282775
0.0265428
0.0244464
0.0219847
0.019339
0.0172243
0.000471648
0.00099623
0.00160807
0.00235236
0.00321641
0.00416082
0.00514022
0.00612732
0.00710649
0.00808374
0.00905962
0.0100339
0.0110129
0.0119973
0.012987
0.0139809
0.0149774
0.0159744
0.0169694
0.0179647
0.0189519
0.0199294
0.0208976
0.0218495
0.0227862
0.0237001
0.0245931
0.0254644
0.0263043
0.0271137
0.0278924
0.0286341
0.0293365
0.0299994
0.0306196
0.0311942
0.0317204
0.0321971
0.0326205
0.0329862
0.0332922
0.0335356
0.033711
0.0338156
0.0338429
0.0337843
0.0336286
0.0333627
0.0329719
0.0324353
0.0317281
0.0308234
0.0296874
0.0282795
0.0265524
0.0244664
0.0220183
0.0193872
0.0172379
0.000515518
0.00102589
0.00163401
0.00237434
0.00323112
0.00416641
0.00513836
0.00612085
0.00709775
0.00807406
0.00904955
0.0100235
0.0110021
0.0119859
0.0129748
0.0139677
0.0149631
0.0159589
0.0169528
0.0179469
0.0189331
0.0199097
0.0208771
0.0218283
0.0227646
0.0236782
0.0245712
0.0254427
0.0262831
0.027093
0.0278724
0.028615
0.0293184
0.0299823
0.0306036
0.0311793
0.0317066
0.0321843
0.0326086
0.032975
0.0332816
0.0335253
0.033701
0.0338056
0.0338328
0.033774
0.0336181
0.0333521
0.0329613
0.0324253
0.0317193
0.0308167
0.0296843
0.0282817
0.0265621
0.0244864
0.0220517
0.0194347
0.0172518
0.000561164
0.00105842
0.00166127
0.00239685
0.00324624
0.00417281
0.00513753
0.00611534
0.00708972
0.00806482
0.00903971
0.0100133
0.0109913
0.0119745
0.0129625
0.0139545
0.0149489
0.0159436
0.0169364
0.0179294
0.0189146
0.0198903
0.0208569
0.0218075
0.0227434
0.0236568
0.0245497
0.0254214
0.0262621
0.0270725
0.0278526
0.028596
0.0293003
0.0299652
0.0305876
0.0311644
0.0316927
0.0321713
0.0325964
0.0329635
0.0332707
0.0335148
0.0336907
0.0337954
0.0338226
0.0337636
0.0336076
0.0333415
0.0329509
0.0324154
0.0317107
0.0308103
0.0296815
0.0282841
0.026572
0.0245064
0.0220849
0.0194816
0.0172659
0.000609508
0.00109315
0.0016901
0.0024202
0.00326205
0.00418014
0.00513777
0.00611079
0.00708243
0.00805606
0.00903016
0.0100031
0.0109806
0.0119631
0.0129504
0.0139414
0.0149348
0.0159284
0.0169202
0.0179122
0.0188964
0.0198712
0.0208371
0.0217871
0.0227226
0.0236357
0.0245286
0.0254004
0.0262414
0.0270523
0.0278331
0.0285772
0.0292824
0.0299482
0.0305716
0.0311493
0.0316786
0.0321581
0.0325841
0.0329518
0.0332596
0.0335041
0.0336803
0.0337851
0.0338122
0.0337531
0.033597
0.0333309
0.0329405
0.0324057
0.0317023
0.0308042
0.0296788
0.0282867
0.0265819
0.0245264
0.022118
0.0195278
0.0172801
0.000660068
0.0011303
0.00172071
0.00244467
0.00327876
0.0041885
0.0051391
0.00610723
0.0070759
0.00804784
0.00902094
0.0099932
0.01097
0.0119518
0.0129382
0.0139284
0.0149207
0.0159134
0.0169041
0.0178951
0.0188785
0.0198524
0.0208176
0.0217671
0.0227021
0.023615
0.0245078
0.0253798
0.026221
0.0270324
0.0278137
0.0285586
0.0292646
0.0299313
0.0305555
0.0311342
0.0316644
0.0321448
0.0325715
0.03294
0.0332482
0.0334932
0.0336696
0.0337745
0.0338017
0.0337426
0.0335864
0.0333204
0.0329303
0.0323962
0.0316941
0.0307982
0.0296764
0.0282894
0.026592
0.0245464
0.0221509
0.0195734
0.0172946
0.00071247
0.00117011
0.00175337
0.00247049
0.00329653
0.00419796
0.00514154
0.00610464
0.00707014
0.00804014
0.00901205
0.00998347
0.0109595
0.0119405
0.0129261
0.0139154
0.0149068
0.0158985
0.0168883
0.0178784
0.0188608
0.019834
0.0207985
0.0217474
0.022682
0.0235947
0.0244874
0.0253595
0.026201
0.0270127
0.0277946
0.0285401
0.0292469
0.0299144
0.0305395
0.0311191
0.0316501
0.0321313
0.0325588
0.0329278
0.0332367
0.033482
0.0336587
0.0337638
0.033791
0.0337319
0.0335758
0.0333099
0.0329201
0.0323868
0.031686
0.0307925
0.0296741
0.0282924
0.0266021
0.0245664
0.0221836
0.0196185
0.0173092
0.000767233
0.00121288
0.00178832
0.00249784
0.00331549
0.00420854
0.00514506
0.00610301
0.00706513
0.00803299
0.00900353
0.00997396
0.0109492
0.0119294
0.0129141
0.0139025
0.014893
0.0158838
0.0168726
0.0178618
0.0188434
0.0198158
0.0207796
0.021728
0.0226623
0.0235747
0.0244673
0.0253395
0.0261812
0.0269933
0.0277757
0.0285218
0.0292292
0.0298975
0.0305234
0.0311038
0.0316357
0.0321177
0.0325458
0.0329155
0.0332249
0.0334706
0.0336476
0.0337529
0.0337802
0.0337212
0.0335651
0.0332994
0.0329101
0.0323775
0.0316782
0.030787
0.0296721
0.0282954
0.0266124
0.0245865
0.0222161
0.0196629
0.017324
0.000825125
0.00125903
0.00182578
0.00252683
0.00333565
0.0042202
0.0051496
0.00610226
0.00706083
0.00802636
0.00899537
0.00996469
0.010939
0.0119183
0.0129023
0.0138898
0.0148794
0.0158692
0.0168571
0.0178454
0.0188262
0.0197979
0.0207611
0.021709
0.0226428
0.023555
0.0244476
0.0253197
0.0261617
0.0269741
0.0277569
0.0285036
0.0292117
0.0298807
0.0305074
0.0310885
0.0316211
0.0321039
0.0325327
0.032903
0.0332128
0.033459
0.0336363
0.0337418
0.0337693
0.0337104
0.0335544
0.0332889
0.0329001
0.0323684
0.0316706
0.0307816
0.0296703
0.0282987
0.0266228
0.0246065
0.0222485
0.0197067
0.017339
0.000887446
0.00130913
0.00186594
0.00255745
0.00335691
0.00423281
0.00515501
0.0061023
0.00705717
0.00802022
0.00898755
0.00995565
0.010929
0.0119074
0.0128905
0.0138771
0.0148658
0.0158548
0.0168418
0.0178293
0.0188093
0.0197803
0.0207429
0.0216903
0.0226238
0.0235357
0.0244281
0.0253003
0.0261424
0.0269552
0.0277384
0.0284856
0.0291942
0.0298639
0.0304913
0.0310732
0.0316065
0.0320899
0.0325194
0.0328903
0.0332006
0.0334472
0.0336248
0.0337305
0.0337582
0.0336994
0.0335437
0.0332785
0.0328902
0.0323594
0.0316631
0.0307765
0.0296687
0.0283021
0.0266333
0.0246266
0.0222806
0.01975
0.0173542
0.000956516
0.00136392
0.00190882
0.00258951
0.00337905
0.00424614
0.00516114
0.006103
0.00705406
0.00801451
0.00898005
0.00994685
0.0109191
0.0118966
0.0128788
0.0138645
0.0148524
0.0158405
0.0168267
0.0178134
0.0187927
0.019763
0.020725
0.0216719
0.022605
0.0235167
0.024409
0.0252812
0.0261234
0.0269364
0.02772
0.0284677
0.0291769
0.0298471
0.0304752
0.0310578
0.0315917
0.0320758
0.0325059
0.0328774
0.0331882
0.0334352
0.0336131
0.0337191
0.033747
0.0336884
0.0335329
0.0332681
0.0328804
0.0323505
0.0316557
0.0307715
0.0296672
0.0283057
0.0266439
0.0246466
0.0223126
0.0197927
0.0173695
0.00103567
0.001424
0.0019541
0.00262251
0.00340166
0.00425991
0.00516774
0.0061042
0.00705142
0.00800919
0.00897285
0.00993827
0.0109094
0.011886
0.0128672
0.0138521
0.0148391
0.0158264
0.0168118
0.0177977
0.0187762
0.0197459
0.0207073
0.0216538
0.0225865
0.023498
0.0243902
0.0252624
0.0261047
0.0269179
0.0277018
0.0284499
0.0291596
0.0298304
0.0304591
0.0310423
0.0315769
0.0320616
0.0324923
0.0328643
0.0331756
0.033423
0.0336013
0.0337076
0.0337357
0.0336774
0.0335221
0.0332577
0.0328706
0.0323418
0.0316486
0.0307667
0.0296659
0.0283094
0.0266546
0.0246666
0.0223444
0.0198349
0.017385
0.00112581
0.0014885
0.00200057
0.00265555
0.00342415
0.00427372
0.00517459
0.00610574
0.00704914
0.00800419
0.00896592
0.0099299
0.0108999
0.0118754
0.0128558
0.0138398
0.0148259
0.0158124
0.016797
0.0177822
0.01876
0.0197291
0.02069
0.0216359
0.0225683
0.0234795
0.0243716
0.0252438
0.0260862
0.0268996
0.0276838
0.0284322
0.0291424
0.0298137
0.0304429
0.0310267
0.031562
0.0320472
0.0324785
0.032851
0.0331628
0.0334106
0.0335892
0.0336958
0.0337242
0.0336662
0.0335113
0.0332473
0.0328609
0.0323332
0.0316416
0.0307622
0.0296649
0.0283133
0.0266654
0.0246867
0.022376
0.0198766
0.0174007
0.00120861
0.00154985
0.00204489
0.00268711
0.00344579
0.00428718
0.00518144
0.00610749
0.00704714
0.00799947
0.00895924
0.00992174
0.0108905
0.0118651
0.0128445
0.0138276
0.0148129
0.0157986
0.0167824
0.0177669
0.0187441
0.0197125
0.0206729
0.0216184
0.0225504
0.0234614
0.0243533
0.0252254
0.0260679
0.0268815
0.0276659
0.0284147
0.0291253
0.0297971
0.0304268
0.0310112
0.0315469
0.0320328
0.0324646
0.0328376
0.0331498
0.033398
0.033577
0.0336839
0.0337127
0.0336549
0.0335004
0.033237
0.0328513
0.0323246
0.0316347
0.0307577
0.029664
0.0283174
0.0266762
0.0247067
0.0224074
0.0199178
0.0174165
0.00120156
0.00157917
0.00207927
0.00271484
0.00346575
0.00429997
0.00518814
0.00610935
0.00704536
0.007995
0.00895279
0.00991378
0.0108814
0.0118548
0.0128333
0.0138156
0.0148001
0.0157849
0.016768
0.0177518
0.0187283
0.0196962
0.020656
0.0216011
0.0225328
0.0234435
0.0243353
0.0252073
0.0260498
0.0268636
0.0276482
0.0283973
0.0291083
0.0297805
0.0304107
0.0309955
0.0315318
0.0320182
0.0324505
0.032824
0.0331366
0.0333853
0.0335646
0.0336719
0.033701
0.0336436
0.0334895
0.0332266
0.0328417
0.0323162
0.031628
0.0307535
0.0296632
0.0283216
0.0266872
0.0247267
0.0224386
0.0199585
0.0174325
0.00084401
0.00151178
0.00208992
0.00273595
0.0034834
0.0043119
0.00519462
0.00611129
0.00704379
0.00799078
0.00894657
0.00990602
0.0108724
0.0118448
0.0128223
0.0138037
0.0147874
0.0157715
0.0167538
0.0177369
0.0187128
0.0196801
0.0206394
0.0215841
0.0225154
0.0234259
0.0243175
0.0251895
0.026032
0.0268458
0.0276307
0.02838
0.0290913
0.0297639
0.0303945
0.0309798
0.0315166
0.0320034
0.0324362
0.0328102
0.0331233
0.0333723
0.0335521
0.0336597
0.0336891
0.0336322
0.0334786
0.0332163
0.0328322
0.0323079
0.0316214
0.0307494
0.0296626
0.0283259
0.0266983
0.0247467
0.0224696
0.0199987
0.0174487
0.000281316
0.00131764
0.00207285
0.0027493
0.00349858
0.00432301
0.00520092
0.00611333
0.00704244
0.0079868
0.00894059
0.00989848
0.0108636
0.0118349
0.0128115
0.013792
0.0147748
0.0157581
0.0167398
0.0177222
0.0186975
0.0196642
0.0206231
0.0215673
0.0224983
0.0234085
0.0243
0.0251719
0.0260144
0.0268283
0.0276133
0.0283629
0.0290744
0.0297474
0.0303784
0.0309641
0.0315013
0.0319886
0.0324219
0.0327963
0.0331098
0.0333593
0.0335394
0.0336474
0.0336772
0.0336207
0.0334676
0.0332059
0.0328227
0.0322997
0.0316149
0.0307454
0.0296622
0.0283304
0.0267094
0.0247667
0.0225004
0.0200384
0.0174649
0.000266768
0.00123339
0.00204948
0.00275704
0.0035116
0.00433344
0.00520713
0.00611553
0.00704134
0.0079831
0.00893487
0.00989118
0.010855
0.0118252
0.0128008
0.0137804
0.0147624
0.015745
0.0167259
0.0177077
0.0186824
0.0196486
0.020607
0.0215508
0.0224815
0.0233914
0.0242826
0.0251544
0.0259969
0.0268109
0.027596
0.0283458
0.0290576
0.0297309
0.0303622
0.0309483
0.0314859
0.0319737
0.0324073
0.0327822
0.0330961
0.033346
0.0335265
0.033635
0.0336652
0.0336091
0.0334565
0.0331956
0.0328133
0.0322916
0.0316086
0.0307416
0.029662
0.028335
0.0267207
0.0247867
0.0225311
0.0200778
0.0174814
0.000254827
0.00118337
0.00202627
0.002761
0.00352275
0.00434326
0.00521329
0.00611792
0.00704051
0.00797969
0.00892943
0.00988412
0.0108466
0.0118157
0.0127903
0.013769
0.0147502
0.015732
0.0167123
0.0176934
0.0186675
0.0196332
0.0205911
0.0215345
0.0224649
0.0233745
0.0242656
0.0251372
0.0259797
0.0267936
0.0275789
0.0283288
0.0290408
0.0297144
0.030346
0.0309325
0.0314705
0.0319586
0.0323927
0.032768
0.0330823
0.0333326
0.0335135
0.0336224
0.033653
0.0335974
0.0334454
0.0331852
0.032804
0.0322835
0.0316024
0.030738
0.0296619
0.0283397
0.026732
0.0248067
0.0225616
0.0201167
0.017498
0.00024506
0.00115114
0.00200536
0.00276235
0.00353217
0.00435245
0.00521941
0.00612051
0.00703998
0.00797658
0.00892427
0.00987732
0.0108384
0.0118064
0.01278
0.0137578
0.0147382
0.0157192
0.0166988
0.0176792
0.0186528
0.0196179
0.0205754
0.0215184
0.0224485
0.0233579
0.0242487
0.0251202
0.0259626
0.0267766
0.0275619
0.0283119
0.0290241
0.0296979
0.0303299
0.0309166
0.031455
0.0319435
0.032378
0.0327536
0.0330684
0.033319
0.0335004
0.0336097
0.0336408
0.0335857
0.0334343
0.0331749
0.0327946
0.0322755
0.0315963
0.0307345
0.0296619
0.0283446
0.0267434
0.0248267
0.0225918
0.0201552
0.0175148
0.000237073
0.00112952
0.00198756
0.00276202
0.00354002
0.00436097
0.00522543
0.00612329
0.00703974
0.0079738
0.00891942
0.0098708
0.0108305
0.0117973
0.0127699
0.0137468
0.0147263
0.0157066
0.0166855
0.0176653
0.0186383
0.0196029
0.02056
0.0215026
0.0224323
0.0233414
0.024232
0.0251034
0.0259457
0.0267597
0.027545
0.0282952
0.0290075
0.0296815
0.0303137
0.0309007
0.0314394
0.0319282
0.0323631
0.0327391
0.0330543
0.0333054
0.0334871
0.0335968
0.0336284
0.0335739
0.0334232
0.0331645
0.0327853
0.0322677
0.0315903
0.0307311
0.0296621
0.0283496
0.0267549
0.0248466
0.0226219
0.0201932
0.0175317
0.000230507
0.00111484
0.00197309
0.00276079
0.00354651
0.00436877
0.00523128
0.0061262
0.00703977
0.00797132
0.00891487
0.00986455
0.0108228
0.0117884
0.0127599
0.0137359
0.0147147
0.0156942
0.0166724
0.0176516
0.018624
0.0195881
0.0205447
0.021487
0.0224163
0.0233252
0.0242156
0.0250868
0.025929
0.0267429
0.0275282
0.0282785
0.0289909
0.0296651
0.0302975
0.0308848
0.0314238
0.0319129
0.0323481
0.0327245
0.0330401
0.0332915
0.0334737
0.0335839
0.033616
0.033562
0.033412
0.0331542
0.0327761
0.0322599
0.0315845
0.0307279
0.0296624
0.0283548
0.0267665
0.0248666
0.0226518
0.0202308
0.0175487
0.000225071
0.0011049
0.00196177
0.00275924
0.00355191
0.00437585
0.0052369
0.00612919
0.00704003
0.00796912
0.00891061
0.00985858
0.0108154
0.0117798
0.0127502
0.0137253
0.0147032
0.0156819
0.0166595
0.017638
0.0186099
0.0195735
0.0205297
0.0214715
0.0224005
0.0233091
0.0241993
0.0250704
0.0259124
0.0267263
0.0275116
0.0282619
0.0289744
0.0296487
0.0302813
0.0308688
0.0314081
0.0318975
0.032333
0.0327098
0.0330257
0.0332776
0.0334602
0.0335708
0.0336034
0.0335501
0.0334008
0.0331439
0.0327669
0.0322521
0.0315787
0.0307248
0.0296629
0.02836
0.0267781
0.0248865
0.0226815
0.0202681
0.0175659
0.000220538
0.00109827
0.00195323
0.00275778
0.00355644
0.00438225
0.00524223
0.0061322
0.00704047
0.00796719
0.00890663
0.00985288
0.0108083
0.0117714
0.0127408
0.0137148
0.0146919
0.0156699
0.0166467
0.0176247
0.018596
0.0195591
0.0205148
0.0214563
0.022385
0.0232933
0.0241832
0.0250541
0.025896
0.0267098
0.0274951
0.0282453
0.028958
0.0296324
0.0302651
0.0308528
0.0313923
0.031882
0.0323178
0.0326949
0.0330112
0.0332635
0.0334466
0.0335576
0.0335908
0.0335381
0.0333895
0.0331335
0.0327577
0.0322445
0.0315731
0.0307218
0.0296635
0.0283654
0.0267898
0.0249063
0.022711
0.0203049
0.0175832
0.000216731
0.00109397
0.0019471
0.00275668
0.00356035
0.00438802
0.00524724
0.00613516
0.00704105
0.00796548
0.0089029
0.00984743
0.0108014
0.0117632
0.0127315
0.0137046
0.0146808
0.015658
0.0166341
0.0176115
0.0185823
0.0195449
0.0205002
0.0214413
0.0223696
0.0232776
0.0241673
0.025038
0.0258798
0.0266934
0.0274786
0.0282289
0.0289416
0.029616
0.0302489
0.0308368
0.0313765
0.0318665
0.0323026
0.03268
0.0329966
0.0332493
0.0334328
0.0335444
0.0335781
0.033526
0.0333782
0.0331232
0.0327486
0.0322369
0.0315675
0.0307189
0.0296642
0.0283709
0.0268016
0.0249262
0.0227403
0.0203414
0.0176006
0.000213511
0.00109135
0.00194299
0.00275608
0.00356382
0.00439321
0.00525189
0.00613802
0.0070417
0.00796394
0.0088994
0.00984222
0.0107947
0.0117552
0.0127224
0.0136945
0.0146698
0.0156463
0.0166218
0.0175985
0.0185687
0.0195309
0.0204857
0.0214264
0.0223544
0.0232621
0.0241516
0.025022