/*--------------------------------*- C++ -*----------------------------------*\
| =========                 |                                                 |
| \\      /  F ield         | OpenFOAM: The Open Source CFD Toolbox           |
|  \\    /   O peration     | Version:  3.0.1                                 |
|   \\  /    A nd           | Web:      www.OpenFOAM.org                      |
|    \\/     M anipulation  |                                                 |
\*---------------------------------------------------------------------------*/
FoamFile
{
    version     2.0;
    format      ascii;
    class       surfaceScalarField;
    location    "2629";
    object      phi;
}
// * * * * * * * * * * * * * * * * * * * * * * * * * * * * * * * * * * * * * //

dimensions      [0 3 -1 0 0 0 0];

internalField   nonuniform List<scalar> 
28494
(
-2.17047e-06
0.000164364
-9.42764e-07
0.000254425
-4.06731e-07
0.000301903
-1.45102e-07
0.000331309
-4.68543e-07
0.000357394
-2.20062e-07
0.000380823
-2.15064e-07
0.000399106
-1.95588e-07
0.00041615
-1.74855e-07
0.000427947
-1.54001e-07
0.000447459
-1.32971e-07
0.000457422
-1.13114e-07
0.000471021
-9.44878e-08
0.000483982
-7.73066e-08
0.000496368
-6.17474e-08
0.000508243
-4.7955e-08
0.00051967
-3.60378e-08
0.000530709
-2.6063e-08
0.000541423
-1.79968e-08
0.000551868
-1.20491e-08
0.000567187
-7.83632e-09
0.000572219
-5.58161e-09
0.000587355
-5.00588e-09
0.000597342
-5.98308e-09
0.000607308
-8.41078e-09
0.000622594
-1.1969e-08
0.000627383
-1.65972e-08
0.000648277
-2.19824e-08
0.000658697
-2.79045e-08
0.000669263
-3.41629e-08
0.000685497
-4.05253e-08
0.00070204
-4.67527e-08
0.000713312
-5.26549e-08
0.000730417
-5.80447e-08
0.000747859
-6.27455e-08
0.000765628
-6.66036e-08
0.000783723
-6.94895e-08
0.000802134
-7.13229e-08
0.000826716
-7.2007e-08
0.000845787
-7.1501e-08
0.000865096
-6.98208e-08
0.000890648
-6.69995e-08
0.000916527
-6.30116e-08
0.000936531
-5.80348e-08
0.000975202
-5.20912e-08
0.00101435
-4.53402e-08
0.00106022
-3.79988e-08
0.00111294
-3.03013e-08
0.00116623
-2.25337e-08
0.00122645
-1.5206e-08
0.00130672
-8.63504e-09
0.00138789
-3.55515e-09
0.00148969
-2.35279e-10
0.00160604
1.64259e-10
0.00176412
-1.61466e-09
0.00196545
-8.30974e-09
0.00225279
-1.5323e-08
0.00269942
-3.1414e-08
0.00356007
0.00881955
-2.53314e-06
0.000166897
-1.6189e-06
0.000253511
-8.82017e-07
0.000301166
-5.90603e-07
0.000331017
-7.52021e-07
0.000357555
-5.19756e-07
0.000380591
-4.62859e-07
0.000399049
-4.30047e-07
0.000416117
-3.92526e-07
0.00042791
-3.51885e-07
0.000447418
-3.09975e-07
0.00045738
-2.68537e-07
0.000470979
-2.28539e-07
0.000483942
-1.90745e-07
0.00049633
-1.55809e-07
0.000508208
-1.24279e-07
0.000519639
-9.65893e-08
0.000530682
-7.30506e-08
0.0005414
-5.38575e-08
0.000551849
-3.91651e-08
0.000567173
-2.88819e-08
0.000572209
-2.2977e-08
0.000587349
-2.11982e-08
0.00059734
-2.32307e-08
0.00060731
-2.87862e-08
0.0006226
-3.72426e-08
0.000627392
-4.83829e-08
0.000648288
-6.14993e-08
0.00065871
-7.60242e-08
0.000669277
-9.149e-08
0.000685512
-1.07324e-07
0.000702056
-1.22868e-07
0.000713328
-1.37688e-07
0.000730432
-1.5128e-07
0.000747872
-1.63185e-07
0.00076564
-1.73e-07
0.000783733
-1.80386e-07
0.000802141
-1.85114e-07
0.000826721
-1.86933e-07
0.000845789
-1.85745e-07
0.000865095
-1.8155e-07
0.000890644
-1.74388e-07
0.00091652
-1.64377e-07
0.000936521
-1.5172e-07
0.000975189
-1.36638e-07
0.00101434
-1.19492e-07
0.00106021
-1.00793e-07
0.00111292
-8.12057e-08
0.00116621
-6.15272e-08
0.00122643
-4.27996e-08
0.0013067
-2.61383e-08
0.00138787
-1.30214e-08
0.00148968
-4.59789e-09
0.00160603
-2.7814e-09
0.00176412
-7.43549e-09
0.00196546
-2.1709e-08
0.0022528
-4.08546e-08
0.00269944
-6.95495e-08
0.0035601
0.00881948
-2.57591e-06
0.000169473
-1.9443e-06
0.00025288
-1.24051e-06
0.000300462
-9.54528e-07
0.000330731
-9.778e-07
0.000357578
-7.56027e-07
0.000380369
-6.73574e-07
0.000398967
-6.28828e-07
0.000416072
-5.80278e-07
0.000427861
-5.26133e-07
0.000447364
-4.68974e-07
0.000457323
-4.10931e-07
0.000470921
-3.53824e-07
0.000483884
-2.99077e-07
0.000496275
-2.4788e-07
0.000508157
-2.01224e-07
0.000519592
-1.599e-07
0.00053064
-1.24498e-07
0.000541365
-9.54332e-08
0.00055182
-7.28453e-08
0.00056715
-5.69654e-08
0.000572193
-4.7536e-08
0.00058734
-4.43529e-08
0.000597337
-4.69661e-08
0.000607312
-5.49238e-08
0.000622608
-6.73743e-08
0.000627404
-8.39501e-08
0.000648304
-1.03617e-07
0.00065873
-1.25508e-07
0.000669299
-1.48922e-07
0.000685536
-1.72987e-07
0.00070208
-1.96672e-07
0.000713352
-2.19324e-07
0.000730454
-2.40157e-07
0.000747893
-2.58452e-07
0.000765658
-2.73576e-07
0.000783748
-2.84998e-07
0.000802153
-2.92342e-07
0.000826728
-2.95212e-07
0.000845791
-2.93456e-07
0.000865094
-2.87038e-07
0.000890638
-2.76005e-07
0.000916509
-2.60621e-07
0.000936506
-2.41072e-07
0.00097517
-2.17768e-07
0.00101431
-1.91247e-07
0.00106018
-1.62268e-07
0.00111289
-1.31903e-07
0.00116618
-1.01409e-07
0.0012264
-7.22455e-08
0.00130667
-4.62965e-08
0.00138785
-2.56401e-08
0.00148966
-1.23024e-08
0.00160602
-8.67985e-09
0.00176412
-1.56426e-08
0.00196546
-3.58769e-08
0.00225282
-6.62125e-08
0.00269947
-1.03409e-07
0.00356014
0.00881937
-2.55215e-06
0.000172025
-2.10687e-06
0.000252434
-1.48052e-06
0.000299836
-1.21203e-06
0.000330463
-1.15567e-06
0.000357522
-9.37933e-07
0.000380151
-8.45732e-07
0.000398875
-7.94374e-07
0.000416021
-7.40515e-07
0.000427807
-6.78433e-07
0.000447302
-6.10963e-07
0.000457255
-5.40706e-07
0.000470851
-4.70293e-07
0.000483814
-4.01868e-07
0.000496207
-3.37212e-07
0.000508092
-2.77794e-07
0.000519533
-2.24789e-07
0.000530587
-1.79087e-07
0.000541319
-1.41326e-07
0.000551782
-1.11693e-07
0.000567121
-9.06966e-08
0.000572172
-7.7937e-08
0.000587327
-7.32503e-08
0.000597333
-7.60925e-08
0.000607315
-8.58847e-08
0.000622617
-1.01583e-07
0.00062742
-1.22697e-07
0.000648325
-1.47916e-07
0.000658755
-1.76114e-07
0.000669327
-2.06386e-07
0.000685566
-2.376e-07
0.000702111
-2.68396e-07
0.000713382
-2.97922e-07
0.000730484
-3.25139e-07
0.00074792
-3.49095e-07
0.000765682
-3.68943e-07
0.000783768
-3.83972e-07
0.000802168
-3.93671e-07
0.000826738
-3.97507e-07
0.000845795
-3.95269e-07
0.000865091
-3.8688e-07
0.000890629
-3.72395e-07
0.000916494
-3.52197e-07
0.000936485
-3.26459e-07
0.000975144
-2.95746e-07
0.00101428
-2.60754e-07
0.00106015
-2.22459e-07
0.00111285
-1.82305e-07
0.00116614
-1.4195e-07
0.00122636
-1.0322e-07
0.00130663
-6.86767e-08
0.00138781
-4.09475e-08
0.00148963
-2.28174e-08
0.001606
-1.71632e-08
0.00176411
-2.57404e-08
0.00196547
-5.09404e-08
0.00225285
-9.08073e-08
0.00269951
-1.35193e-07
0.00356018
0.00881924
-2.44164e-06
0.000174467
-2.15619e-06
0.000252149
-1.62326e-06
0.000299303
-1.37976e-06
0.000330219
-1.27678e-06
0.000357419
-1.07231e-06
0.000379947
-9.80401e-07
0.000398783
-9.2878e-07
0.000415969
-8.74786e-07
0.000427753
-8.09883e-07
0.000447237
-7.36654e-07
0.000457182
-6.58204e-07
0.000470772
-5.7798e-07
0.000483734
-4.98891e-07
0.000496128
-4.23358e-07
0.000508017
-3.53362e-07
0.000519463
-2.90489e-07
0.000530524
-2.35948e-07
0.000541264
-1.90608e-07
0.000551737
-1.54746e-07
0.000567085
-1.29125e-07
0.000572146
-1.13258e-07
0.000587311
-1.0703e-07
0.000597326
-1.09832e-07
0.000607318
-1.20989e-07
0.000622629
-1.393e-07
0.000627438
-1.64177e-07
0.00064835
-1.94072e-07
0.000658785
-2.27641e-07
0.000669361
-2.63803e-07
0.000685602
-3.01198e-07
0.000702148
-3.38177e-07
0.000713419
-3.7371e-07
0.000730519
-4.06532e-07
0.000747953
-4.35478e-07
0.000765711
-4.59509e-07
0.000783792
-4.77748e-07
0.000802186
-4.89553e-07
0.000826749
-4.94266e-07
0.0008458
-4.91613e-07
0.000865089
-4.81477e-07
0.000890619
-4.63913e-07
0.000916477
-4.39408e-07
0.000936461
-4.08114e-07
0.000975113
-3.70732e-07
0.00101424
-3.28094e-07
0.0010601
-2.81367e-07
0.00111281
-2.32326e-07
0.00116609
-1.82984e-07
0.00122631
-1.35486e-07
0.00130658
-9.29918e-08
0.00138777
-5.86243e-08
0.00148959
-3.58354e-08
0.00160598
-2.79603e-08
0.0017641
-3.7547e-08
0.00196548
-6.68092e-08
0.00225288
-1.14731e-07
0.00269956
-1.65061e-07
0.00356023
0.00881907
-2.24058e-06
0.000176707
-2.09889e-06
0.000252007
-1.67274e-06
0.000298877
-1.46484e-06
0.000330011
-1.34333e-06
0.000357298
-1.16237e-06
0.000379766
-1.08005e-06
0.0003987
-1.03455e-06
0.000415923
-9.85181e-07
0.000427704
-9.22006e-07
0.000447174
-8.47072e-07
0.000457107
-7.64023e-07
0.000470689
-6.77131e-07
0.000483647
-5.90105e-07
0.000496041
-5.06039e-07
0.000507933
-4.27462e-07
0.000519384
-3.56387e-07
0.000530453
-2.9436e-07
0.000541202
-2.42493e-07
0.000551685
-2.0118e-07
0.000567043
-1.71425e-07
0.000572116
-1.52697e-07
0.000587293
-1.44937e-07
0.000597319
-1.47497e-07
0.00060732
-1.59632e-07
0.000622641
-1.80018e-07
0.000627459
-2.07985e-07
0.000648378
-2.41791e-07
0.000658819
-2.79906e-07
0.000669399
-3.21096e-07
0.000685643
-3.63804e-07
0.000702191
-4.06129e-07
0.000713462
-4.46882e-07
0.00073056
-4.84598e-07
0.000747991
-5.1792e-07
0.000765744
-5.45635e-07
0.00078382
-5.6671e-07
0.000802207
-5.80386e-07
0.000826763
-5.85884e-07
0.000845806
-5.82869e-07
0.000865086
-5.71181e-07
0.000890608
-5.50874e-07
0.000916456
-5.22517e-07
0.000936433
-4.86245e-07
0.000975077
-4.42869e-07
0.0010142
-3.93339e-07
0.00106005
-3.38989e-07
0.00111275
-2.8189e-07
0.00116603
-2.24365e-07
0.00122626
-1.68833e-07
0.00130653
-1.18988e-07
0.00138772
-7.83924e-08
0.00148955
-5.10854e-08
0.00160595
-4.08369e-08
0.00176409
-5.08985e-08
0.00196549
-8.34091e-08
0.00225291
-1.38041e-07
0.00269961
-1.93168e-07
0.00356029
0.00881888
-1.94961e-06
0.000178657
-1.93791e-06
0.000251995
-1.6291e-06
0.000298568
-1.47226e-06
0.000329854
-1.35963e-06
0.000357185
-1.21256e-06
0.000379619
-1.14841e-06
0.000398636
-1.11436e-06
0.000415889
-1.07451e-06
0.000427664
-1.01687e-06
0.000447116
-9.43643e-07
0.000457034
-8.59064e-07
0.000470605
-7.68222e-07
0.000483556
-6.75646e-07
0.000495948
-5.85126e-07
0.000507842
-4.99754e-07
0.000519299
-4.21986e-07
0.000530376
-3.53709e-07
0.000541134
-2.96289e-07
0.000551628
-2.50258e-07
0.000566997
-2.16849e-07
0.000572083
-1.95519e-07
0.000587271
-1.86275e-07
0.000597309
-1.8845e-07
0.000607323
-2.01252e-07
0.000622653
-2.2326e-07
0.000627481
-2.5374e-07
0.000648409
-2.9079e-07
0.000658856
-3.32724e-07
0.000669441
-3.78179e-07
0.000685689
-4.25425e-07
0.000702238
-4.72346e-07
0.000713509
-5.17609e-07
0.000730605
-5.59574e-07
0.000748033
-5.96711e-07
0.000765781
-6.27649e-07
0.000783851
-6.51215e-07
0.000802231
-6.66539e-07
0.000826778
-6.72729e-07
0.000845812
-6.69392e-07
0.000865082
-6.56324e-07
0.000890595
-6.33573e-07
0.000916434
-6.01775e-07
0.000936401
-5.61046e-07
0.000975036
-5.12289e-07
0.00101415
-4.56556e-07
0.00106
-3.95326e-07
0.00111269
-3.30927e-07
0.00116597
-2.65956e-07
0.00122619
-2.03068e-07
0.00130647
-1.46429e-07
0.00138767
-9.9991e-08
0.00148951
-6.83118e-08
0.00160592
-5.5569e-08
0.00176408
-6.56362e-08
0.0019655
-1.00663e-07
0.00225294
-1.60787e-07
0.00269967
-2.19669e-07
0.00356034
0.00881866
-1.54058e-06
0.000180197
-1.66794e-06
0.000252123
-1.49403e-06
0.000298394
-1.4093e-06
0.00032977
-1.3314e-06
0.000357107
-1.22871e-06
0.000379516
-1.19044e-06
0.000398598
-1.17357e-06
0.000415873
-1.14613e-06
0.000427636
-1.09696e-06
0.000447067
-1.0281e-06
0.000456965
-9.4445e-07
0.000470521
-8.51907e-07
0.000483463
-7.55802e-07
0.000495852
-6.60621e-07
0.000507747
-5.70017e-07
0.000519208
-4.86894e-07
0.000530292
-4.1348e-07
0.000541061
-3.51399e-07
0.000551566
-3.01334e-07
0.000566947
-2.64733e-07
0.000572046
-2.41067e-07
0.000587248
-2.30416e-07
0.000597299
-2.32112e-07
0.000607324
-2.4533e-07
0.000622667
-2.68581e-07
0.000627504
-3.01081e-07
0.000648441
-3.40798e-07
0.000658896
-3.85916e-07
0.000669486
-4.34959e-07
0.000685738
-4.86056e-07
0.000702289
-5.36901e-07
0.000713559
-5.86036e-07
0.000730654
-6.31665e-07
0.000748078
-6.72105e-07
0.000765822
-7.05845e-07
0.000783885
-7.3158e-07
0.000802257
-7.48343e-07
0.000826795
-7.55136e-07
0.000845819
-7.51505e-07
0.000865079
-7.37208e-07
0.00089058
-7.12281e-07
0.000916409
-6.7741e-07
0.000936366
-6.32696e-07
0.000974991
-5.79117e-07
0.0010141
-5.17808e-07
0.00105994
-4.50375e-07
0.00111262
-3.79371e-07
0.0011659
-3.07629e-07
0.00122612
-2.38011e-07
0.0013064
-1.75093e-07
0.0013876
-1.23177e-07
0.00148946
-8.72753e-08
0.00160588
-7.1945e-08
0.00176406
-8.16083e-08
0.00196551
-1.18494e-07
0.00225298
-1.83009e-07
0.00269974
-2.447e-07
0.00356041
0.00881842
-9.4732e-07
0.000181145
-1.27948e-06
0.000252455
-1.27239e-06
0.000298387
-1.28668e-06
0.000329784
-1.26714e-06
0.000357088
-1.2184e-06
0.000379467
-1.2123e-06
0.000398592
-1.2163e-06
0.000415877
-1.20379e-06
0.000427624
-1.16503e-06
0.000447028
-1.10238e-06
0.000456902
-1.02147e-06
0.00047044
-9.28962e-07
0.000483371
-8.30961e-07
0.000495754
-7.32612e-07
0.000507649
-6.38118e-07
0.000519114
-5.50808e-07
0.000530205
-4.73247e-07
0.000540983
-4.07311e-07
0.0005515
-3.53839e-07
0.000566894
-3.14484e-07
0.000572007
-2.88749e-07
0.000587222
-2.76789e-07
0.000597287
-2.77949e-07
0.000607326
-2.91389e-07
0.00062268
-3.1557e-07
0.000627528
-3.4967e-07
0.000648475
-3.91555e-07
0.000658938
-4.393e-07
0.000669534
-4.91339e-07
0.00068579
-5.45676e-07
0.000702344
-5.99845e-07
0.000713614
-6.52279e-07
0.000730707
-7.01043e-07
0.000748127
-7.44324e-07
0.000765865
-7.80478e-07
0.000783921
-8.0809e-07
0.000802284
-8.26095e-07
0.000826813
-8.33401e-07
0.000845826
-8.29499e-07
0.000865075
-8.14103e-07
0.000890565
-7.87236e-07
0.000916382
-7.49628e-07
0.000936328
-7.01356e-07
0.000974943
-6.43461e-07
0.00101404
-5.77149e-07
0.00105987
-5.04131e-07
0.00111255
-4.27158e-07
0.00116582
-3.49265e-07
0.00122604
-2.73494e-07
0.00130632
-2.04777e-07
0.00138753
-1.47726e-07
0.0014894
-1.07752e-07
0.00160584
-8.97647e-08
0.00176405
-9.86674e-08
0.00196552
-1.36821e-07
0.00225302
-2.04734e-07
0.00269981
-2.68372e-07
0.00356047
0.00881815
-3.45633e-07
0.00018149
-7.85072e-07
0.000252894
-9.79003e-07
0.000298581
-1.12127e-06
0.000329926
-1.17942e-06
0.000357146
-1.19135e-06
0.000379479
-1.22128e-06
0.000398622
-1.24834e-06
0.000415904
-1.25152e-06
0.000427627
-1.224e-06
0.000447001
-1.1685e-06
0.000456847
-1.09146e-06
0.000470363
-1.00021e-06
0.00048328
-9.01558e-07
0.000495655
-8.01243e-07
0.000507548
-7.03971e-07
0.000519016
-6.13478e-07
0.000530115
-5.32637e-07
0.000540902
-4.63566e-07
0.000551431
-4.07262e-07
0.000566838
-3.65565e-07
0.000571965
-3.38022e-07
0.000587194
-3.24869e-07
0.000597274
-3.2547e-07
0.000607326
-3.38983e-07
0.000622694
-3.63838e-07
0.000627553
-3.99183e-07
0.000648511
-4.42807e-07
0.000658981
-4.92697e-07
0.000669584
-5.47211e-07
0.000685844
-6.04247e-07
0.000702401
-6.61207e-07
0.000713671
-7.16427e-07
0.000730762
-7.67853e-07
0.000748179
-8.13552e-07
0.000765911
-8.51771e-07
0.000783959
-8.80987e-07
0.000802313
-9.00053e-07
0.000826832
-9.07787e-07
0.000845834
-9.03627e-07
0.000865071
-8.87249e-07
0.000890548
-8.58656e-07
0.000916353
-8.1861e-07
0.000936288
-7.67165e-07
0.000974891
-7.05414e-07
0.00101398
-6.34621e-07
0.0010598
-5.56585e-07
0.00111247
-4.74224e-07
0.00116574
-3.90749e-07
0.00122596
-3.09355e-07
0.00130624
-2.35286e-07
0.00138746
-1.73421e-07
0.00148934
-1.29529e-07
0.0016058
-1.08831e-07
0.00176403
-1.16675e-07
0.00196553
-1.55543e-07
0.00225306
-2.25993e-07
0.00269988
-2.90717e-07
0.00356053
0.00881786
8.55746e-06
-8.55747e-06
1.79445e-05
-9.38709e-06
2.64816e-05
-8.5371e-06
3.38681e-05
-7.38646e-06
3.99866e-05
-6.11846e-06
4.47911e-05
-4.80453e-06
4.82965e-05
-3.50539e-06
5.05501e-05
-2.25364e-06
5.16144e-05
-1.06427e-06
5.15736e-05
4.08282e-08
5.0517e-05
1.05652e-06
4.85137e-05
2.00331e-06
4.56285e-05
2.88526e-06
4.19388e-05
3.68962e-06
3.75564e-05
4.38248e-06
3.26658e-05
4.89056e-06
2.7615e-05
5.05082e-06
2.31127e-05
4.50227e-06
1.95144e-05
3.59836e-06
1.88254e-05
6.88987e-07
9.31767e-06
-1.78751e-05
1.82435e-05
-1.8313e-05
2.64484e-05
-1.6742e-05
3.3589e-05
-1.45271e-05
3.95489e-05
-1.20784e-05
4.43192e-05
-9.57481e-06
4.79314e-05
-7.11757e-06
5.04334e-05
-4.75565e-06
5.18747e-05
-2.50559e-06
5.22857e-05
-3.70181e-07
5.16964e-05
1.64586e-06
5.01487e-05
3.55103e-06
4.76852e-05
5.34868e-06
4.43531e-05
7.02171e-06
4.02121e-05
8.52349e-06
3.53354e-05
9.76727e-06
2.97745e-05
1.06117e-05
2.33728e-05
1.0904e-05
1.48578e-05
1.21134e-05
3.14833e-05
2.19978e-06
8.74408e-06
-2.66192e-05
1.71644e-05
-2.67333e-05
2.47883e-05
-2.43658e-05
3.13867e-05
-2.11255e-05
3.68848e-05
-1.75766e-05
4.12921e-05
-1.3982e-05
4.46485e-05
-1.04741e-05
4.70036e-05
-7.11067e-06
4.84055e-05
-3.90752e-06
4.88943e-05
-8.59003e-07
4.84993e-05
2.0409e-06
4.72453e-05
4.80505e-06
4.51545e-05
7.43946e-06
4.22407e-05
9.93549e-06
3.85052e-05
1.2259e-05
3.39274e-05
1.4345e-05
2.84335e-05
1.61057e-05
2.17901e-05
1.75473e-05
1.32667e-05
2.06369e-05
4.19844e-05
2.76565e-06
8.06872e-06
-3.46879e-05
1.58103e-05
-3.44748e-05
2.2733e-05
-3.12885e-05
2.86724e-05
-2.7065e-05
3.36015e-05
-2.25056e-05
3.75474e-05
-1.79279e-05
4.05555e-05
-1.34822e-05
4.26745e-05
-9.22968e-06
4.39487e-05
-5.18174e-06
4.44135e-05
-1.32384e-06
4.40948e-05
2.3596e-06
4.30145e-05
5.88542e-06
4.11886e-05
9.26534e-06
3.8621e-05
1.25031e-05
3.52949e-05
1.55851e-05
3.11669e-05
1.84731e-05
2.616e-05
2.11126e-05
2.01158e-05
2.35915e-05
1.24934e-05
2.82593e-05
5.13315e-05
3.14627e-06
7.32561e-06
-4.20135e-05
1.42722e-05
-4.14214e-05
2.0404e-05
-3.74203e-05
2.56204e-05
-3.22814e-05
2.9932e-05
-2.68172e-05
3.33776e-05
-2.13735e-05
3.60046e-05
-1.61091e-05
3.78597e-05
-1.10849e-05
3.8984e-05
-6.30603e-06
3.94077e-05
-1.74754e-06
3.91507e-05
2.61663e-06
3.82292e-05
6.80698e-06
3.66541e-05
1.08404e-05
3.44273e-05
1.473e-05
3.15341e-05
1.84783e-05
2.79393e-05
2.20678e-05
2.35869e-05
2.5465e-05
1.83436e-05
2.88348e-05
1.16267e-05
3.49762e-05
5.96388e-05
3.31935e-06
6.51283e-06
-4.85264e-05
1.25891e-05
-4.74977e-05
1.78811e-05
-4.27123e-05
2.23487e-05
-3.67489e-05
2.60267e-05
-3.04952e-05
2.89585e-05
-2.43054e-05
3.1191e-05
-1.83416e-05
3.277e-05
-1.26638e-05
3.37346e-05
-7.27066e-06
3.41116e-05
-2.12456e-06
3.39166e-05
2.81167e-06
3.31616e-05
7.56194e-06
3.18535e-05
1.21485e-05
2.99918e-05
1.65916e-05
2.75654e-05
2.09046e-05
2.45493e-05
2.50839e-05
2.08999e-05
2.91144e-05
1.64709e-05
3.32638e-05
1.05961e-05
4.08511e-05
6.6995e-05
3.23993e-06
5.64103e-06
-5.41674e-05
1.07982e-05
-5.26549e-05
1.52282e-05
-4.71423e-05
1.89412e-05
-4.04619e-05
2.19829e-05
-3.35369e-05
2.43962e-05
-2.67187e-05
2.62271e-05
-2.01724e-05
2.75218e-05
-1.39585e-05
2.8321e-05
-8.06988e-06
2.86512e-05
-2.45474e-06
2.85252e-05
2.93767e-06
2.79517e-05
8.13551e-06
2.69328e-05
1.31673e-05
2.5465e-05
1.80595e-05
2.35367e-05
2.28328e-05
2.11272e-05
2.74935e-05
1.81941e-05
3.20475e-05
1.45549e-05
3.69029e-05
9.44057e-06
4.59655e-05
7.35197e-05
2.91584e-06
4.72294e-06
-5.88903e-05
8.93064e-06
-5.68626e-05
1.24917e-05
-5.07033e-05
1.54526e-05
-4.34229e-05
1.78602e-05
-3.59445e-05
1.97545e-05
-2.86131e-05
2.11804e-05
-2.15983e-05
2.21857e-05
-1.49638e-05
2.28155e-05
-8.69966e-06
2.30998e-05
-2.73913e-06
2.30515e-05
2.98602e-06
2.2676e-05
8.511e-06
2.197e-05
1.38733e-05
2.09237e-05
1.91058e-05
1.95213e-05
2.42352e-05
1.77392e-05
2.92756e-05
1.55248e-05
3.42618e-05
1.26351e-05
3.97927e-05
8.1837e-06
5.04168e-05
7.93298e-05
2.37356e-06
3.76699e-06
-6.26573e-05
7.00455e-06
-6.01002e-05
9.69401e-06
-5.33927e-05
1.19061e-05
-4.56349e-05
1.36827e-05
-3.77211e-05
1.50615e-05
-2.99918e-05
1.60845e-05
-2.26213e-05
1.67998e-05
-1.56791e-05
1.72584e-05
-9.15832e-06
1.74994e-05
-2.98016e-06
1.75395e-05
2.94601e-06
1.73806e-05
8.66984e-06
1.70114e-05
1.42425e-05
1.64131e-05
1.97041e-05
1.55613e-05
2.5087e-05
1.44232e-05
3.04137e-05
1.29242e-05
3.57608e-05
1.07315e-05
4.19855e-05
6.84037e-06
5.43079e-05
8.45482e-05
1.62206e-06
2.77454e-06
-6.54319e-05
5.02191e-06
-6.23476e-05
6.83317e-06
-5.5204e-05
8.29532e-06
-4.70971e-05
9.44516e-06
-3.8871e-05
1.03178e-05
-3.08645e-05
1.09495e-05
-2.3253e-05
1.1384e-05
-1.61136e-05
1.16757e-05
-9.45002e-06
1.18778e-05
-3.18219e-06
1.20184e-05
2.80535e-06
1.2096e-05
8.59232e-06
1.20875e-05
1.4251e-05
1.19624e-05
1.98292e-05
1.16834e-05
2.53661e-05
1.12025e-05
3.08946e-05
1.04108e-05
3.65524e-05
8.8528e-06
4.35435e-05
5.4252e-06
5.77355e-05
8.93564e-05
6.16978e-07
1.73847e-06
-6.71703e-05
2.96762e-06
-6.35767e-05
3.88492e-06
-5.61213e-05
4.59069e-06
-4.78028e-05
5.11882e-06
-3.93991e-05
5.50183e-06
-3.12475e-05
5.76684e-06
-2.3518e-05
5.94701e-06
-1.62938e-05
6.0907e-06
-9.59371e-06
6.26385e-06
-3.35535e-06
6.5156e-06
2.5536e-06
6.84502e-06
8.2629e-06
7.21822e-06
1.38778e-05
7.58992e-06
1.94575e-05
7.90293e-06
2.50531e-05
8.08526e-06
3.07122e-05
7.9821e-06
3.66556e-05
6.97039e-06
4.45552e-05
3.89052e-06
6.08154e-05
9.39055e-05
-6.58658e-07
6.40061e-07
-6.78104e-05
8.09561e-07
-6.37462e-05
8.08868e-07
-5.61206e-05
7.46293e-07
-4.77403e-05
6.57883e-07
-3.93107e-05
5.72595e-07
-3.11622e-05
5.08027e-07
-2.34534e-05
4.81544e-07
-1.62673e-05
5.2096e-07
-9.63312e-06
6.85733e-07
-3.52012e-06
1.05092e-06
2.18842e-06
1.63602e-06
7.6778e-06
2.40341e-06
1.31104e-05
3.29379e-06
1.85671e-05
4.21662e-06
2.41302e-05
5.05489e-06
2.9874e-05
5.59762e-06
3.61129e-05
4.98795e-06
4.51649e-05
2.08524e-06
6.37181e-05
9.81094e-05
-2.11861e-06
-5.57398e-07
-6.7253e-05
-1.49741e-06
-6.28062e-05
-2.45169e-06
-5.51663e-05
-3.30369e-06
-4.68883e-05
-4.01146e-06
-3.86029e-05
-4.54873e-06
-3.06249e-05
-4.90363e-06
-2.30985e-05
-5.07317e-06
-1.60978e-05
-5.05653e-06
-9.64976e-06
-4.83353e-06
-3.74311e-06
-4.34515e-06
1.70004e-06
-3.53614e-06
6.86879e-06
-2.4123e-06
1.19866e-05
-1.0283e-06
1.71831e-05
5.13439e-07
2.25885e-05
2.03423e-06
2.83532e-05
3.15194e-06
3.49952e-05
2.73801e-06
4.55788e-05
-1.7683e-07
6.66329e-05
0.000101596
-3.66342e-06
-1.88815e-06
-6.53649e-05
-4.00776e-06
-6.06866e-05
-5.97399e-06
-5.32001e-05
-7.65992e-06
-4.52023e-05
-9.01484e-06
-3.7248e-05
-1.00128e-05
-2.9627e-05
-1.06442e-05
-2.24671e-05
-1.0915e-05
-1.5827e-05
-1.08479e-05
-9.71685e-06
-1.04751e-05
-4.11594e-06
-9.79674e-06
1.02171e-06
-8.74735e-06
5.8194e-06
-7.28719e-06
1.05264e-05
-5.46133e-06
1.53573e-05
-3.36717e-06
2.04943e-05
-1.22849e-06
2.62145e-05
2.58063e-07
3.35086e-05
-2.26209e-07
4.60631e-05
-2.82474e-06
6.92315e-05
0.000103982
-5.21043e-06
-3.36951e-06
-6.19953e-05
-6.78122e-06
-5.72749e-05
-9.86252e-06
-5.01188e-05
-1.24703e-05
-4.25946e-05
-1.4547e-05
-3.51713e-05
-1.60676e-05
-2.81063e-05
-1.70253e-05
-2.15095e-05
-1.743e-05
-1.54222e-05
-1.73112e-05
-9.83568e-06
-1.67251e-05
-4.70202e-06
-1.57613e-05
5.78997e-08
-1.44059e-05
4.46402e-06
-1.25764e-05
8.69694e-06
-1.03106e-05
1.30915e-05
-7.74217e-06
1.79259e-05
-5.25707e-06
2.37294e-05
-3.77002e-06
3.20216e-05
-4.1555e-06
4.64486e-05
-5.66344e-06
7.07394e-05
0.000104974
-6.65596e-06
-5.03266e-06
-5.69627e-05
-9.8921e-06
-5.24154e-05
-1.42304e-05
-4.57805e-05
-1.78891e-05
-3.89358e-05
-2.08089e-05
-3.22515e-05
-2.29726e-05
-2.59426e-05
-2.4384e-05
-2.00982e-05
-2.50632e-05
-1.4743e-05
-2.50471e-05
-9.85179e-06
-2.43911e-05
-5.35795e-06
-2.31546e-05
-1.17865e-06
-2.14256e-05
2.73503e-06
-1.92303e-05
6.5017e-06
-1.66066e-05
1.04678e-05
-1.37603e-05
1.50796e-05
-1.11696e-05
2.11387e-05
-9.53725e-06
3.03892e-05
-8.98175e-06
4.58931e-05
-8.63409e-06
7.03917e-05
0.000104109
-7.76867e-06
-6.89721e-06
-5.00655e-05
-1.33938e-05
-4.59189e-05
-1.91648e-05
-4.00095e-05
-2.40371e-05
-3.40635e-05
-2.79556e-05
-2.8333e-05
-3.0922e-05
-2.29762e-05
-3.29623e-05
-1.80579e-05
-3.41157e-05
-1.35897e-05
-3.4428e-05
-9.53945e-06
-3.39478e-05
-5.83811e-06
-3.27383e-05
-2.38814e-06
-3.09308e-05
9.27489e-07
-2.86258e-05
4.19673e-06
-2.58786e-05
7.7205e-06
-2.28873e-05
1.20883e-05
-1.99732e-05
1.82246e-05
-1.73711e-05
2.77872e-05
-1.47727e-05
4.32946e-05
-1.16244e-05
6.72434e-05
0.000100677
-8.19301e-06
-8.95913e-06
-4.11064e-05
-1.73093e-05
-3.75687e-05
-2.47083e-05
-3.26104e-05
-3.0972e-05
-2.77999e-05
-3.60581e-05
-2.32469e-05
-3.99992e-05
-1.90351e-05
-4.28572e-05
-1.51999e-05
-4.47044e-05
-1.17425e-05
-4.56121e-05
-8.63169e-06
-4.56445e-05
-5.80569e-06
-4.4866e-05
-3.16664e-06
-4.33641e-05
-5.74446e-07
-4.12515e-05
2.08416e-06
-3.85833e-05
5.05226e-06
-3.54048e-05
8.90979e-06
-3.17325e-05
1.45523e-05
-2.73618e-05
2.34165e-05
-2.17456e-05
3.76784e-05
-1.46454e-05
6.01433e-05
9.35381e-05
-7.50615e-06
-1.12525e-05
-2.98538e-05
-2.16543e-05
-2.71669e-05
-3.08405e-05
-2.34242e-05
-3.8646e-05
-1.99944e-05
-4.5055e-05
-1.68379e-05
-5.01364e-05
-1.39537e-05
-5.399e-05
-1.13463e-05
-5.67236e-05
-9.00887e-06
-5.84383e-05
-6.91697e-06
-5.92192e-05
-5.02478e-06
-5.91279e-05
-3.25796e-06
-5.81968e-05
-1.50561e-06
-5.65005e-05
3.87937e-07
-5.40539e-05
2.60561e-06
-5.07029e-05
5.55877e-06
-4.61544e-05
1.00038e-05
-3.97966e-05
1.70587e-05
-3.0643e-05
2.85248e-05
-1.82263e-05
4.77266e-05
8.0571e-05
-5.25925e-06
-1.39073e-05
-1.59465e-05
-2.63864e-05
-1.46879e-05
-3.73634e-05
-1.24473e-05
-4.67288e-05
-1.0629e-05
-5.45308e-05
-9.03589e-06
-6.08772e-05
-7.60735e-06
-6.5894e-05
-6.32948e-06
-6.97113e-05
-5.19155e-06
-7.24513e-05
-4.17695e-06
-7.42157e-05
-3.26045e-06
-7.50728e-05
-2.40083e-06
-7.50461e-05
-1.53225e-06
-7.41054e-05
-5.52765e-07
-7.2183e-05
6.83166e-07
-6.90167e-05
2.39246e-06
-6.40186e-05
5.0057e-06
-5.61534e-05
9.19345e-06
-4.36384e-05
1.60098e-05
-2.39237e-05
2.8012e-05
5.6406e-05
2.41317e-07
-1.59465e-05
-3.06344e-05
-4.30816e-05
-5.37106e-05
-6.27465e-05
-7.03539e-05
-7.66833e-05
-8.18749e-05
-8.60518e-05
-8.93123e-05
-9.17131e-05
-9.32454e-05
-9.37981e-05
-9.3115e-05
-9.07225e-05
-8.57168e-05
-7.65234e-05
-6.05135e-05
-3.25016e-05
2.39044e-05
4.48378e-07
0.000181731
-2.10099e-07
0.000253553
-6.29019e-07
0.000299
-8.98945e-07
0.000330196
-1.03585e-06
0.000357283
-1.10442e-06
0.000379548
-1.16625e-06
0.000398684
-1.21211e-06
0.000415949
-1.22967e-06
0.000427645
-1.21338e-06
0.000446984
-1.16714e-06
0.0004568
-1.0977e-06
0.000470294
-1.01263e-06
0.000483195
-9.1888e-07
0.000495562
-8.22415e-07
0.000507452
-7.28104e-07
0.000518922
-6.39827e-07
0.000530026
-5.60573e-07
0.000540823
-4.92556e-07
0.000551363
-4.36854e-07
0.000566782
-3.95372e-07
0.000571924
-3.6772e-07
0.000587167
-3.5419e-07
0.00059726
-3.542e-07
0.000607326
-3.66949e-07
0.000622706
-3.90927e-07
0.000627577
-4.25302e-07
0.000648545
-4.67915e-07
0.000659024
-5.1679e-07
0.000669632
-5.70306e-07
0.000685898
-6.26388e-07
0.000702457
-6.82465e-07
0.000713727
-7.36883e-07
0.000730817
-7.876e-07
0.000748229
-8.3269e-07
0.000765956
-8.70397e-07
0.000783997
-8.992e-07
0.000802342
-9.17942e-07
0.000826851
-9.25436e-07
0.000845841
-9.21107e-07
0.000865066
-9.04618e-07
0.000890532
-8.75959e-07
0.000916325
-8.35882e-07
0.000936248
-7.84422e-07
0.00097484
-7.22653e-07
0.00101392
-6.5182e-07
0.00105973
-5.73704e-07
0.00111239
-4.91198e-07
0.00116566
-4.07485e-07
0.00122588
-3.25701e-07
0.00130616
-2.51064e-07
0.00138738
-1.88374e-07
0.00148927
-1.43408e-07
0.00160575
-1.21253e-07
0.001764
-1.2747e-07
0.00196553
-1.64181e-07
0.00225309
-2.32377e-07
0.00269994
-2.93224e-07
0.0035606
0.00881756
1.10532e-06
0.000182825
2.7899e-07
0.000254379
-3.47692e-07
0.000299626
-7.45865e-07
0.000330594
-9.60797e-07
0.000357498
-1.08143e-06
0.000379668
-1.17324e-06
0.000398775
-1.23794e-06
0.000416014
-1.26675e-06
0.000427674
-1.25906e-06
0.000446977
-1.21875e-06
0.00045676
-1.15308e-06
0.000470228
-1.06999e-06
0.000483112
-9.76828e-07
0.000495469
-8.79921e-07
0.000507355
-7.84462e-07
0.000518827
-6.946e-07
0.000529936
-6.13552e-07
0.000540742
-5.43705e-07
0.000551293
-4.86262e-07
0.000566724
-4.43267e-07
0.000571881
-4.14381e-07
0.000587138
-3.99964e-07
0.000597246
-3.99461e-07
0.000607326
-4.12087e-07
0.000622719
-4.36322e-07
0.000627601
-4.71324e-07
0.00064858
-5.14895e-07
0.000659068
-5.65007e-07
0.000669683
-6.19993e-07
0.000685953
-6.77717e-07
0.000702515
-7.35517e-07
0.000713784
-7.91677e-07
0.000730873
-8.44074e-07
0.000748282
-8.907e-07
0.000766003
-9.29722e-07
0.000784036
-9.59543e-07
0.000802372
-9.7894e-07
0.00082687
-9.86665e-07
0.000845849
-9.82097e-07
0.000865062
-9.64865e-07
0.000890515
-9.34944e-07
0.000916295
-8.93096e-07
0.000936206
-8.39338e-07
0.000974786
-7.74768e-07
0.00101385
-7.00668e-07
0.00105965
-6.18871e-07
0.00111231
-5.32382e-07
0.00116557
-4.44496e-07
0.00122579
-3.58448e-07
0.00130607
-2.79672e-07
0.00138731
-2.13145e-07
0.00148921
-1.64901e-07
0.0016057
-1.40247e-07
0.00176398
-1.45071e-07
0.00196554
-1.81624e-07
0.00225313
-2.50781e-07
0.00270001
-3.11491e-07
0.00356066
0.00881725
1.49864e-06
0.000184092
6.1735e-07
0.000255261
-1.49764e-07
0.000300394
-6.38664e-07
0.000331083
-9.13914e-07
0.000357773
-1.07492e-06
0.000379829
-1.18951e-06
0.00039889
-1.26676e-06
0.000416091
-1.30511e-06
0.000427712
-1.30391e-06
0.000446975
-1.2683e-06
0.000456725
-1.20585e-06
0.000470166
-1.12467e-06
0.00048303
-1.03232e-06
0.000495376
-9.35352e-07
0.000507258
-8.39209e-07
0.00051873
-7.48249e-07
0.000529845
-6.65866e-07
0.000540659
-5.946e-07
0.000551222
-5.35765e-07
0.000566666
-4.91523e-07
0.000571837
-4.61589e-07
0.000587108
-4.46383e-07
0.00059723
-4.4539e-07
0.000607325
-4.57834e-07
0.000622731
-4.82202e-07
0.000627626
-5.17642e-07
0.000648615
-5.61933e-07
0.000659112
-6.13005e-07
0.000669734
-6.69157e-07
0.000686009
-7.28197e-07
0.000702574
-7.87397e-07
0.000713844
-8.44982e-07
0.00073093
-8.98764e-07
0.000748335
-9.46661e-07
0.000766051
-9.86773e-07
0.000784076
-1.01743e-06
0.000802403
-1.03737e-06
0.00082689
-1.04526e-06
0.000845857
-1.04046e-06
0.000865057
-1.02255e-06
0.000890497
-9.91498e-07
0.000916264
-9.48071e-07
0.000936163
-8.92259e-07
0.00097473
-8.25189e-07
0.00101379
-7.48159e-07
0.00105958
-6.63048e-07
0.00111223
-5.72956e-07
0.00116548
-4.81274e-07
0.0012257
-3.91316e-07
0.00130598
-3.08702e-07
0.00138722
-2.38566e-07
0.00148914
-1.87161e-07
0.00160565
-1.60008e-07
0.00176395
-1.63256e-07
0.00196554
-1.99343e-07
0.00225317
-2.6888e-07
0.00270008
-3.29017e-07
0.00356072
0.00881692
1.67376e-06
0.000185565
7.67358e-07
0.000256167
-6.71403e-08
0.000301228
-5.99126e-07
0.000331615
-9.08173e-07
0.000358082
-1.09283e-06
0.000380014
-1.22007e-06
0.000399017
-1.30493e-06
0.000416176
-1.34703e-06
0.000427754
-1.34951e-06
0.000446978
-1.31693e-06
0.000456692
-1.25683e-06
0.000470106
-1.17721e-06
0.000482951
-1.08568e-06
0.000495285
-9.88888e-07
0.000507161