/*--------------------------------*- C++ -*----------------------------------*\
| =========                 |                                                 |
| \\      /  F ield         | OpenFOAM: The Open Source CFD Toolbox           |
|  \\    /   O peration     | Version:  3.0.1                                 |
|   \\  /    A nd           | Web:      www.OpenFOAM.org                      |
|    \\/     M anipulation  |                                                 |
\*---------------------------------------------------------------------------*/
FoamFile
{
    version     2.0;
    format      ascii;
    class       volVectorField;
    location    "2629";
    object      U;
}
// * * * * * * * * * * * * * * * * * * * * * * * * * * * * * * * * * * * * * //

dimensions      [0 1 -1 0 0 0 0];

internalField   nonuniform List<vector> 
14431
(
(1.37671 -0.0210607 0)
(2.13073 -0.0149442 0)
(2.49842 -0.00694423 0)
(2.74034 -0.00275075 0)
(2.92462 -0.00291948 0)
(3.0851 -0.00438025 0)
(3.19984 -0.00216285 0)
(3.303 -0.00226952 0)
(3.39658 -0.00205911 -2.17641e-18)
(3.48176 -0.0018239 0)
(3.55925 -0.00159045 0)
(3.62946 -0.00136246 0)
(3.69345 -0.00114849 0)
(3.75189 -0.000949431 1.38932e-18)
(3.8054 -0.000767419 0)
(3.85459 -0.000604293 0)
(3.90002 -0.00046148 0)
(3.94224 -0.000339952 0)
(3.98176 -0.000239741 0)
(4.01922 -0.000162147 0)
(4.05486 -0.000106085 0)
(4.08911 -7.0272e-05 0)
(4.12247 -5.50126e-05 8.08797e-19)
(4.15511 -5.75818e-05 0)
(4.18749 -7.68384e-05 -7.36171e-19)
(4.21971 -0.000110568 0)
(4.25212 -0.000156315 0)
(4.28506 -0.000212321 1.30637e-18)
(4.31839 -0.000275473 0)
(4.35237 -0.000343436 1.21594e-18)
(4.38721 -0.000413764 0)
(4.42282 -0.000483906 0)
(4.45921 -0.00055146 -1.10419e-18)
(4.4965 -0.000614292 0)
(4.53465 -0.000670408 0)
(4.57356 -0.00071797 1.01293e-18)
(4.61313 -0.000755409 -9.87684e-19)
(4.65337 -0.000781585 0)
(4.69412 -0.000795486 0)
(4.73505 -0.000796331 -9.189e-19)
(4.77611 -0.000784021 8.96739e-19)
(4.81722 -0.000758965 8.76646e-19)
(4.85801 -0.000720902 0)
(4.89853 -0.000670873 0)
(4.9389 -0.000610104 8.17013e-19)
(4.97896 -0.000539294 0)
(5.01865 -0.000460749 0)
(5.05779 -0.000376989 0)
(5.09619 -0.000290439 -1.46057e-18)
(5.13403 -0.000206118 0)
(5.17135 -0.000128148 1.37265e-18)
(5.20832 -6.30889e-05 1.33028e-18)
(5.24537 -1.47683e-05 0)
(5.28337 4.41949e-06 0)
(5.3238 9.38253e-07 0)
(5.36911 -5.45792e-05 0)
(5.42377 -0.000116312 4.28144e-18)
(5.49696 -0.000292875 0)
(5.64027 -0.000265461 0)
(1.38539 -0.0300478 3.60495e-17)
(2.12196 -0.0225147 0)
(2.49323 -0.0128206 0)
(2.73797 -0.00706936 0)
(2.92522 -0.00699094 0)
(3.08319 -0.0079535 0)
(3.19936 -0.00493035 0)
(3.30269 -0.00498631 0)
(3.39629 -0.00457169 -2.67299e-18)
(3.4815 -0.00413422 0)
(3.55902 -0.00367276 0)
(3.62925 -0.00320628 0)
(3.69326 -0.00275242 0)
(3.75172 -0.00231895 1.75122e-18)
(3.80525 -0.00191387 0)
(3.85445 -0.00154386 0)
(3.8999 -0.0012144 0)
(3.94214 -0.000929655 0)
(3.98168 -0.000691993 0)
(4.01915 -0.000504124 0)
(4.05481 -0.000366144 0)
(4.08907 -0.000276417 0)
(4.12244 -0.000234823 -3.15348e-18)
(4.1551 -0.000237055 0)
(4.18749 -0.000280117 -9.61749e-19)
(4.21971 -0.000359173 0)
(4.25214 -0.000468833 0)
(4.28508 -0.000604648 1.71825e-18)
(4.31842 -0.000759168 0)
(4.3524 -0.000926659 1.60568e-18)
(4.38724 -0.00110125 0)
(4.42285 -0.00127621 0)
(4.45924 -0.00144546 1.46607e-18)
(4.49653 -0.00160369 0)
(4.53467 -0.00174561 0)
(4.57358 -0.00186642 1.35189e-18)
(4.61315 -0.00196199 1.32029e-18)
(4.65338 -0.00202928 0)
(4.69413 -0.00206546 0)
(4.73505 -0.00206862 1.23396e-18)
(4.77611 -0.00203831 -1.20615e-18)
(4.81721 -0.00197503 1.18089e-18)
(4.858 -0.00187896 0)
(4.89852 -0.00175241 0)
(4.93888 -0.00159791 -1.10645e-18)
(4.97894 -0.00141802 0)
(5.01863 -0.00121804 4.18961e-18)
(5.05777 -0.00100454 0)
(5.09618 -0.000784555 -1.99343e-18)
(5.13402 -0.000569718 -3.85723e-18)
(5.17135 -0.000370823 -1.87886e-18)
(5.20832 -0.000204265 -5.46671e-18)
(5.24538 -7.99935e-05 0)
(5.28339 -2.69804e-05 0)
(5.32383 -3.13783e-05 -6.57307e-18)
(5.36915 -0.00016049 0)
(5.42381 -0.00030571 -5.78524e-18)
(5.49701 -0.000710704 0)
(5.64029 -0.000638784 0)
(1.40335 -0.0325682 -3.57831e-17)
(2.11481 -0.0252633 0)
(2.48696 -0.0167424 0)
(2.73543 -0.0109432 -1.25347e-17)
(2.92567 -0.010391 0)
(3.0813 -0.0104013 -7.90429e-18)
(3.19875 -0.00736569 0)
(3.30235 -0.00727179 -0.000328194)
(3.39593 -0.00671687 0.000296906)
(3.48112 -0.00614945 -9.63408e-18)
(3.55863 -0.0055258 0)
(3.62887 -0.0048802 0)
(3.6929 -0.00423718 0)
(3.75138 -0.003613 3.50458e-18)
(3.80493 -0.00302225 -6.54147e-18)
(3.85417 -0.002477 6.12835e-18)
(3.89965 -0.00198711 0)
(3.94193 -0.00156029 5.43429e-18)
(3.98151 -0.00120168 -5.14413e-18)
(4.01902 -0.00091497 0)
(4.05472 -0.000702268 0)
(4.08902 -0.000562046 0)
(4.12242 -0.000493439 -2.10461e-18)
(4.15511 -0.000491564 0)
(4.18753 -0.000551663 -1.92555e-18)
(4.21978 -0.000666882 0)
(4.25222 -0.000829412 3.55743e-18)
(4.28518 -0.00103242 -3.43975e-18)
(4.31853 -0.00126483 3.3311e-18)
(4.35252 -0.00151791 -3.21399e-18)
(4.38736 -0.00178288 3.10632e-18)
(4.42297 -0.00204921 0)
(4.45935 -0.00230758 0)
(4.49663 -0.00254985 2.851e-18)
(4.53476 -0.00276772 0)
(4.57365 -0.00295368 -2.70477e-18)
(4.6132 -0.00310123 0)
(4.65342 -0.00320552 0)
(4.69414 -0.003262 5.03252e-18)
(4.73505 -0.00326768 0)
(4.77608 -0.00322171 4.82539e-18)
(4.81716 -0.00312436 -2.36215e-18)
(4.85794 -0.00297657 0)
(4.89844 -0.00278159 -4.53505e-18)
(4.9388 -0.00254276 4.42671e-18)
(4.97885 -0.00226463 4.31087e-18)
(5.01853 -0.00195488 -4.19075e-18)
(5.05767 -0.00162372 0)
(5.09608 -0.00128275 3.98822e-18)
(5.13393 -0.00094884 3.8586e-18)
(5.17128 -0.00063889 0)
(5.20827 -0.000378023 3.64555e-18)
(5.24535 -0.0001819 0)
(5.28339 -9.3393e-05 0)
(5.32385 -9.40519e-05 6.57134e-18)
(5.36919 -0.000283005 -1.24793e-17)
(5.42386 -0.000500305 0)
(5.49706 -0.00109944 0)
(5.64025 -0.000989177 0)
(1.42585 -0.0326029 0)
(2.11025 -0.0261217 4.0661e-17)
(2.48122 -0.0192703 0)
(2.73308 -0.013825 1.2432e-17)
(2.92556 -0.01295 0)
(3.07951 -0.0121606 7.94747e-18)
(3.19803 -0.00938427 0)
(3.30196 -0.00914449 -0.000658131)
(3.39552 -0.00852694 0.000594389)
(3.48066 -0.00789172 -2.84586e-25)
(3.55813 -0.00716432 0)
(3.62836 -0.00639163 0)
(3.6924 -0.0056047 7.54621e-18)
(3.7509 -0.00482892 -7.01355e-18)
(3.80449 -0.00408608 6.54604e-18)
(3.85377 -0.00339414 -6.13309e-18)
(3.8993 -0.0027677 -5.76638e-18)
(3.94163 -0.00221823 -5.43924e-18)
(3.98126 -0.00175385 1.02982e-17)
(4.01883 -0.00137941 0)
(4.05459 -0.00109925 0)
(4.08894 -0.000912245 -4.40589e-18)
(4.12239 -0.000817001 8.42747e-18)
(4.15513 -0.000808435 -4.03953e-18)
(4.18759 -0.000880352 7.71029e-18)
(4.21988 -0.00102432 -3.73621e-18)
(4.25235 -0.00123051 -3.56092e-18)
(4.28533 -0.00149009 6.8859e-18)
(4.3187 -0.00178886 -3.334e-18)
(4.35269 -0.00211552 6.43316e-18)
(4.38754 -0.00245874 -3.1086e-18)
(4.42314 -0.00280468 0)
(4.45951 -0.00314105 -5.8712e-18)
(4.49678 -0.00345726 -2.85245e-18)
(4.53488 -0.00374227 -5.55201e-18)
(4.57375 -0.00398605 0)
(4.61328 -0.00417998 0)
(4.65346 -0.00431746 0)
(4.69416 -0.00439232 -5.03361e-18)
(4.73503 -0.00440056 -4.93766e-18)
(4.77604 -0.00434084 -4.8262e-18)
(4.8171 -0.00421313 0)
(4.85784 -0.00401912 0)
(4.89832 -0.00376279 4.53587e-18)
(4.93866 -0.00344803 -8.85523e-18)
(4.9787 -0.0030813 -4.3119e-18)
(5.01838 -0.00267221 8.3838e-18)
(5.05751 -0.00223424 0)
(5.09593 -0.00178328 -7.97913e-18)
(5.13379 -0.00134053 0)
(5.17116 -0.000928371 0)
(5.20818 -0.000579687 7.29319e-18)
(5.2453 -0.000315409 0)
(5.28337 -0.000190256 1.36663e-17)
(5.32387 -0.000183155 0)
(5.36925 -0.000420058 2.4942e-17)
(5.42393 -0.000699437 2.30834e-17)
(5.49713 -0.00146311 0)
(5.64017 -0.00131932 0)
(1.44761 -0.0312482 0)
(2.10737 -0.0257432 9.56602e-24)
(2.47639 -0.02063 3.05669e-17)
(2.73095 -0.0157104 0)
(2.92489 -0.0146694 0)
(3.07779 -0.0133643 0)
(3.19728 -0.0109567 0)
(3.30154 -0.0106292 -0.000659684)
(3.39508 -0.010022 0.000595169)
(3.48015 -0.00937542 9.64893e-18)
(3.55757 -0.00859831 0)
(3.62778 -0.00774616 0)
(3.69182 -0.00685688 5.61824e-26)
(3.75034 -0.00596547 -7.01803e-18)
(3.80396 -0.00510147 6.55066e-18)
(3.85328 -0.00428918 0)
(3.89887 -0.0035483 5.77125e-18)
(3.94126 -0.00289427 0)
(3.98096 -0.00233837 -5.15403e-18)
(4.0186 -0.00188686 9.71727e-18)
(4.05442 -0.00154641 9.30713e-18)
(4.08884 -0.00131652 1.32315e-17)
(4.12236 -0.00119558 -4.21818e-18)
(4.15515 -0.00117852 4.04377e-18)
(4.18766 -0.00125806 -3.85912e-18)
(4.21999 -0.00142456 -3.73996e-18)
(4.2525 -0.00166649 7.12868e-18)
(4.28551 -0.00197337 2.02711e-25)
(4.3189 -0.00232838 6.67372e-18)
(4.3529 -0.00271798 -6.43826e-18)
(4.38775 -0.00312864 0)
(4.42335 -0.00354359 6.05821e-18)
(4.45971 -0.00394797 -1.66717e-25)
(4.49696 -0.00432894 0)
(4.53504 -0.004673 1.11089e-17)
(4.57388 -0.00496789 0)
(4.61337 -0.00520297 5.28613e-18)
(4.65353 -0.00537005 -5.14068e-18)
(4.69418 -0.00546143 0)
(4.73502 -0.00547215 4.93863e-18)
(4.77599 -0.00540032 0)
(4.81701 -0.00524558 4.72585e-18)
(4.85773 -0.00501027 0)
(4.89818 -0.00469896 0)
(4.93849 -0.00431596 1.32856e-17)
(4.97851 -0.00386936 -8.62586e-18)
(5.01818 -0.00337047 -8.38609e-18)
(5.05731 -0.00283566 0)
(5.09574 -0.00228473 7.98178e-18)
(5.13362 -0.0017425 0)
(5.17102 -0.0012363 0)
(5.20807 -0.000805836 -7.29523e-18)
(5.24523 -0.000476888 0)
(5.28335 -0.000314361 -1.36664e-17)
(5.32389 -0.000295973 0)
(5.36931 -0.000570316 -1.24628e-17)
(5.42402 -0.000902601 -2.30547e-17)
(5.4972 -0.00180433 -3.94871e-17)
(5.64008 -0.00163066 0)
(1.46738 -0.0288351 0)
(2.10566 -0.0242197 -4.05227e-17)
(2.47242 -0.0208537 -3.0451e-17)
(2.72906 -0.0166221 0)
(2.92391 -0.0155936 -1.96603e-17)
(3.0762 -0.0140732 1.5984e-17)
(3.19656 -0.0120911 0)
(3.30114 -0.0117604 -0.000330764)
(3.39466 -0.0112278 0.000297823)
(3.47965 -0.0106204 0)
(3.55699 -0.00984174 0)
(3.62715 -0.00895253 0)
(3.69117 -0.00799823 -7.55524e-18)
(3.7497 -0.00702363 2.10679e-17)
(3.80336 -0.0060665 -6.55533e-18)
(3.85273 -0.00515787 0)
(3.89838 -0.0043228 -1.15522e-17)
(3.94084 -0.00358093 1.08981e-17)
(3.98061 -0.00294676 0)
(4.01832 -0.00242831 -9.72685e-18)
(4.05422 -0.00203454 -9.31658e-18)
(4.08872 -0.00176576 -8.83013e-18)
(4.12231 -0.00162048 0)
(4.15517 -0.00159378 0)
(4.18774 -0.00167761 0)
(4.22012 -0.00186141 7.48727e-18)
(4.25268 -0.00213228 -1.42708e-17)
(4.28572 -0.00247841 -6.89837e-18)
(4.31913 -0.00288075 1.93801e-25)
(4.35315 -0.00332384 -6.44328e-18)
(4.388 -0.00379228 0)
(4.4236 -0.00426673 -6.06212e-18)
(4.45995 -0.00473006 5.87798e-18)
(4.49717 -0.00516745 -5.7107e-18)
(4.53523 -0.00556319 -5.55689e-18)
(4.57403 -0.00590299 -5.41563e-18)
(4.61349 -0.00617437 -5.28782e-18)
(4.6536 -0.00636768 5.14208e-18)
(4.69421 -0.00647378 1.00718e-17)
(4.735 -0.00648676 0)
(4.77593 -0.00640423 9.65589e-18)
(4.81691 -0.00622542 -4.72669e-18)
(4.85759 -0.00595325 9.32515e-18)
(4.89801 -0.00559273 0)
(4.93829 -0.00514847 -2.5211e-25)
(4.9783 -0.00462998 8.62796e-18)
(5.01795 -0.00405003 0)
(5.05708 -0.00342755 0)
(5.09552 -0.0027858 0)
(5.13342 -0.00215275 0)
(5.17084 -0.00156004 1.50509e-17)
(5.20794 -0.00105347 -1.45944e-17)
(5.24515 -0.000663177 0)
(5.28332 -0.0004629 0)
(5.32392 -0.000430144 0)
(5.36939 -0.000732621 -2.49091e-17)
(5.42412 -0.00110931 4.60519e-17)
(5.49728 -0.00212521 3.93985e-17)
(5.63996 -0.00192431 0)
(1.48498 -0.0255058 -1.38371e-16)
(2.10503 -0.0215479 8.08415e-17)
(2.46936 -0.0199545 6.06374e-17)
(2.72751 -0.0165802 0)
(2.92289 -0.0157853 1.95463e-17)
(3.07485 -0.0143378 -1.60041e-17)
(3.19595 -0.0128263 0)
(3.30081 -0.0125823 -0.00033105)
(3.39429 -0.0121791 0.000298592)
(3.47917 -0.0116537 0)
(3.5564 -0.0109137 0)
(3.6265 -0.0100233 1.63451e-17)
(3.69049 -0.00903611 0)
(3.74902 -0.0080066 -1.40546e-17)
(3.8027 -0.00698104 -1.31201e-17)
(3.85212 -0.00599746 0)
(3.89783 -0.00508644 -5.57565e-26)
(3.94036 -0.0042719 5.46131e-26)
(3.98021 -0.00357167 0)
(4.01801 -0.00299574 0)
(4.054 -0.00255532 0)
(4.08858 -0.0022517 0)
(4.12225 -0.00208373 8.4537e-18)
(4.15519 -0.00204678 0)
(4.18782 -0.0021323 -7.73373e-18)
(4.22027 -0.00232908 -7.4945e-18)
(4.25287 -0.00262311 7.14203e-18)
(4.28595 -0.00300151 0)
(4.31939 -0.00344338 -6.68487e-18)
(4.35343 -0.00393164 1.28965e-17)
(4.38829 -0.00444926 6.23052e-18)
(4.42388 -0.00497471 0)
(4.46021 -0.00548884 0)
(4.49741 -0.00597509 -5.71357e-18)
(4.53543 -0.00641579 0)
(4.5742 -0.00679482 -5.41768e-18)
(4.61361 -0.00709802 1.05791e-17)
(4.65368 -0.00731438 0)
(4.69424 -0.00743346 -1.00743e-17)
(4.73499 -0.00744844 0)
(4.77586 -0.00735639 -9.65776e-18)
(4.81679 -0.00715617 0)
(4.85743 -0.0068511 -9.32691e-18)
(4.89781 -0.00644657 0)
(4.93807 -0.00594739 -2.34591e-25)
(4.97805 -0.00536429 0)
(5.01769 -0.00471127 8.39069e-18)
(5.05682 -0.00400951 0)
(5.09526 -0.00328533 0)
(5.13318 -0.0025694 -1.54554e-17)
(5.17064 -0.00189718 -4.98353e-25)
(5.20779 -0.00131979 2.91966e-17)
(5.24505 -0.000871318 1.41889e-17)
(5.28329 -0.000633203 2.73325e-17)
(5.32395 -0.000583416 0)
(5.36947 -0.000905808 3.76338e-25)
(5.42424 -0.00131905 -4.59947e-17)
(5.49737 -0.00242771 0)
(5.63983 -0.00220135 0)
(1.49979 -0.0211122 1.37524e-16)
(2.1055 -0.0175106 -8.06055e-17)
(2.46732 -0.0179378 -6.03481e-17)
(2.72646 -0.015632 0)
(2.92206 -0.0153325 0)
(3.07382 -0.0142173 0)
(3.19552 -0.0132219 0)
(3.3006 -0.0131478 -0.000663795)
(3.39402 -0.0129173 0.000597596)
(3.47875 -0.0125075 0)
(3.55585 -0.0118373 0)
(3.62584 -0.0109741 -1.6356e-17)
(3.68978 -0.00998008 0)
(3.7483 -0.00891932 0)
(3.802 -0.00784649 1.31297e-17)
(3.85146 -0.00680656 -1.23044e-17)
(3.89723 -0.00583567 1.15715e-17)
(3.93984 -0.00496206 -1.09175e-17)
(3.97978 -0.00420687 1.03371e-17)
(4.01767 -0.00358217 0)
(4.05375 -0.0031014 0)
(4.08842 -0.00276693 8.8479e-18)
(4.12218 -0.00257813 1.29805e-25)
(4.1552 -0.00253076 8.1121e-18)
(4.18791 -0.00261601 1.54825e-17)
(4.22042 -0.00282222 -1.64025e-25)
(4.25308 -0.0031345 0)
(4.2862 -0.00353917 1.38208e-17)
(4.31967 -0.00401377 0)
(4.35373 -0.00453988 6.45309e-18)
(4.38859 -0.00509905 -6.23484e-18)
(4.42418 -0.0056679 0)
(4.4605 -0.00622554 1.17693e-17)
(4.49767 -0.00675382 1.14329e-17)
(4.53566 -0.00723338 0)
(4.57439 -0.00764643 1.08395e-17)
(4.61375 -0.00797732 -1.05826e-17)
(4.65377 -0.0082138 0)
(4.69428 -0.0083442 0)
(4.73496 -0.00836085 0)
(4.77579 -0.00826028 -9.65972e-18)
(4.81667 -0.008041 9.45698e-18)
(4.85726 -0.0077066 0)
(4.8976 -0.00726275 0)
(4.93782 -0.00671441 -1.77259e-17)
(4.97777 -0.00607331 0)
(5.0174 -0.00535452 -8.393e-18)
(5.05652 -0.00458116 1.63802e-17)
(5.09498 -0.00378223 -1.59791e-17)
(5.13292 -0.00299072 1.54605e-17)
(5.17042 -0.00224543 -1.50603e-17)
(5.20762 -0.00160219 -4.26426e-25)
(5.24494 -0.00109856 -1.41912e-17)
(5.28325 -0.000822747 -6.14277e-25)
(5.32398 -0.000753659 0)
(5.36955 -0.00108872 2.48762e-17)
(5.42436 -0.00153132 4.59377e-17)
(5.49746 -0.00271355 0)
(5.63968 -0.00246269 0)
(1.5101 -0.0152055 0)
(2.10737 -0.0116389 0)
(2.46651 -0.0148409 0)
(2.72612 -0.0138705 4.79461e-17)
(2.92162 -0.0143582 0)
(3.07319 -0.0137934 0)
(3.19533 -0.0133559 0)
(3.30054 -0.0135182 -0.000664936)
(3.39385 -0.0134897 0.000598379)
(3.4784 -0.0132177 0)
(3.55533 -0.0126379 0)
(3.6252 -0.0118221 -1.63673e-17)
(3.68907 -0.0108412 0)
(3.74756 -0.00976798 -1.4074e-17)
(3.80127 -0.00866527 -1.31393e-17)
(3.85077 -0.00758475 1.23141e-17)
(3.8966 -0.00656793 0)
(3.93929 -0.00564724 -1.0927e-17)
(3.97931 -0.00484703 -1.03465e-17)
(4.0173 -0.00418152 0)
(4.05348 -0.00366629 0)
(4.08825 -0.00330484 -8.85656e-18)
(4.1221 -0.00309719 -8.47045e-18)
(4.15521 -0.00303958 -8.11999e-18)
(4.188 -0.00312311 -7.74864e-18)
(4.22058 -0.00333586 -7.50855e-18)
(4.2533 -0.00366229 0)
(4.28647 -0.00408807 -1.38325e-17)
(4.31997 -0.00458949 0)
(4.35405 -0.00514701 -1.29158e-17)
(4.38892 -0.005741 1.24782e-17)
(4.4245 -0.0063465 0)
(4.46081 -0.00694109 -1.17759e-17)
(4.49796 -0.00750527 0)
(4.53591 -0.00801816 0)
(4.57459 -0.0084605 0)
(4.61391 -0.0088153 1.05861e-17)
(4.65386 -0.00906916 0)
(4.69431 -0.00920931 0)
(4.73494 -0.00922726 0)
(4.7757 -0.00911904 9.66174e-18)
(4.81653 -0.00888277 -1.04057e-25)
(4.85707 -0.00852224 0)
(4.89736 -0.00804331 0)
(4.93755 -0.00745102 8.86497e-18)
(4.97747 -0.00675795 0)
(5.01708 -0.00598005 0)
(5.0562 -0.00514211 -3.27702e-17)
(5.09466 -0.00427547 1.59841e-17)
(5.13264 -0.00341511 0)
(5.17017 -0.00260271 0)
(5.20743 -0.00189823 -1.46057e-17)
(5.24481 -0.00134234 0)
(5.2832 -0.00102915 -2.73316e-17)
(5.324 -0.00093885 0)
(5.36964 -0.00128019 0)
(5.42449 -0.00174554 -9.1762e-17)
(5.49756 -0.00298418 -7.8288e-17)
(5.63951 -0.00270902 0)
(1.51855 -0.0143208 0)
(2.11085 -0.00311519 7.98445e-17)
(2.46723 -0.0109051 0)
(2.72671 -0.0114811 -4.74799e-17)
(2.92174 -0.0130386 0)
(3.07302 -0.0131804 3.18848e-17)
(3.19542 -0.0133238 -2.72667e-17)
(3.30066 -0.0137629 -0.000331523)
(3.39382 -0.0139479 0.000297611)
(3.47814 -0.0138221 0)
(3.55487 -0.0133424 0)
(3.62459 -0.0125858 1.62783e-17)
(3.68837 -0.0116311 1.5055e-17)
(3.74682 -0.0105593 2.79857e-17)
(3.80052 -0.00944036 -1.98081e-25)
(3.85005 -0.00833218 0)
(3.89595 -0.00728122 0)
(3.93871 -0.00632384 3.25795e-17)
(3.97882 -0.00548744 -2.0564e-17)
(4.01691 -0.00478833 0)
(4.05319 -0.00424408 1.85683e-17)
(4.08806 -0.00385936 1.75975e-17)
(4.12201 -0.00363493 -1.68285e-17)
(4.15522 -0.00356756 -1.61305e-17)
(4.18809 -0.00364838 0)
(4.22074 -0.00386537 -3.07739e-25)
(4.25352 -0.00420251 1.42076e-17)
(4.28675 -0.004645 1.3732e-17)
(4.32028 -0.00516814 1.32921e-17)
(4.35439 -0.00575145 0)
(4.38927 -0.00637434 -1.2382e-17)
(4.42485 -0.00701049 1.20518e-17)
(4.46114 -0.00763619 -1.16817e-17)
(4.49826 -0.00823076 0)
(4.53617 -0.00877198 0)
(4.57481 -0.00923932 0)
(4.61407 -0.00961456 1.04579e-25)
(4.65397 -0.00988329 0)
(4.69435 -0.0100317 9.99044e-18)
(4.73492 -0.0100506 0)
(4.77562 -0.00993543 0)
(4.81638 -0.00968401 -1.87454e-17)
(4.85686 -0.00930021 0)
(4.89711 -0.00879002 0)
(4.93725 -0.00815853 0)
(4.97715 -0.00741897 0)
(5.01674 -0.00658804 1.66303e-17)
(5.05585 -0.00569195 1.62273e-17)
(5.09433 -0.00476403 0)
(5.13233 -0.00384099 0)
(5.16991 -0.00296699 0)
(5.20722 -0.00220561 2.89178e-17)
(5.24468 -0.00160022 0)
(5.28314 -0.00125014 0)
(5.32402 -0.00113701 0)
(5.36974 -0.001479 0)
(5.42463 -0.00196104 9.07154e-17)
(5.49766 -0.00324068 1.54694e-16)
(5.63934 -0.00294062 0)
(-0.067579 0.0675026 0)
(-0.0719975 0.152618 0)
(-0.0645597 0.256887 0)
(-0.0549996 0.35297 0)
(-0.0450588 0.433351 0)
(-0.0351711 0.497572 0)
(-0.0256505 0.546231 0)
(-0.016684 0.579901 0)
(-0.00836928 0.599241 0)
(-0.000869586 0.6051 0)
(0.00586687 0.59855 0)
(0.0120478 0.580546 0)
(0.0177776 0.551895 0)
(0.0230305 0.513387 0)
(0.0276122 0.46605 0)
(0.0310034 0.411472 0)
(0.031917 0.352451 0)
(0.0274199 0.295948 0)
(0.0216321 0.246966 0)
(0.190718 0.123844 1.32133e-35)
(-0.15069 0.0702229 0)
(-0.154924 0.158517 0)
(-0.140702 0.260482 0)
(-0.121392 0.35199 0)
(-0.100348 0.429158 0)
(-0.0788823 0.492008 0)
(-0.057826 0.541006 0)
(-0.0376092 0.576697 0)
(-0.0183993 0.59967 0)
(-0.000335535 0.610701 0)
(0.0163892 0.609588 0)
(0.0319823 0.596997 0)
(0.0465374 0.573523 0)
(0.0599043 0.539641 0)
(0.0716286 0.495925 0)
(0.0808013 0.443137 0)
(0.0857003 0.382037 0)
(0.0834448 0.31403 0)
(0.0845561 0.230611 0)
(0.280296 0.0926449 -1.86539e-27)
(-0.250599 0.0631036 0)
(-0.253091 0.149498 0)
(-0.231106 0.24541 0)
(-0.200727 0.329681 0)
(-0.167252 0.40063 0)
(-0.133149 0.458563 0)
(-0.0997475 0.503913 0)
(-0.067661 0.53723 0)
(-0.0370784 0.559101 0)
(-0.00797515 0.570265 0)
(0.0197423 0.57086 0)
(0.0461342 0.561142 0)
(0.0711868 0.541596 0)
(0.0946931 0.512425 0)
(0.116142 0.473696 0)
(0.134635 0.425328 0)
(0.148866 0.366788 0)
(0.158024 0.298295 0)
(0.180945 0.212809 0)
(0.406011 0.0816827 -1.42121e-27)
(-0.343682 0.0563599 0)
(-0.343032 0.138241 0)
(-0.312044 0.226024 0)
(-0.270315 0.301856 0)
(-0.224901 0.36544 0)
(-0.179087 0.417295 0)
(-0.134486 0.457889 0)
(-0.0917786 0.487782 0)
(-0.0511263 0.507531 0)
(-0.0124272 0.517795 0)
(0.0244237 0.518753 0)
(0.0595854 0.510511 0)
(0.093187 0.493526 0)
(0.12522 0.467941 0)
(0.155412 0.433681 0)
(0.183165 0.390421 0)
(0.207657 0.337379 0)
(0.229381 0.274995 0)
(0.272386 0.198614 0)
(0.520341 0.0784267 7.59482e-36)
(-0.429079 0.0498268 0)
(-0.424655 0.125551 0)
(-0.38459 0.203677 0)
(-0.332294 0.270338 0)
(-0.276257 0.32598 0)
(-0.220219 0.371269 0)
(-0.165919 0.406695 0)
(-0.114044 0.432813 0)
(-0.0646876 0.450147 0)
(-0.017636 0.459295 0)
(0.0273801 0.460423 0)
(0.07055 0.453497 0)
(0.112009 0.438908 0)
(0.151851 0.416771 0)
(0.190025 0.387014 0)
(0.22623 0.349362 0)
(0.259986 0.303202 0)
(0.292658 0.248972 0)
(0.352863 0.183085 0)
(0.619003 0.0752633 1.55341e-36)
(-0.50592 0.0432383 0)
(-0.496998 0.111624 0)
(-0.448002 0.179108 0)
(-0.386007 0.23633 0)
(-0.320556 0.283834 0)
(-0.255577 0.322401 0)
(-0.19286 0.352508 0)
(-0.133073 0.374702 0)
(-0.0762395 0.389487 0)
(-0.0220186 0.39743 0)
(0.0299701 0.398693 0)
(0.0799589 0.393131 0)
(0.128139 0.381076 0)
(0.1747 0.362619 0)
(0.219742 0.337694 0)
(0.26316 0.306085 0)
(0.30469 0.267404 0)
(0.346657 0.221793 0)
(0.422932 0.16584 0)
(0.705669 0.0702474 0)
(-0.573432 0.0365274 0)
(-0.559382 0.0967134 0)
(-0.501936 0.152944 0)
(-0.43136 0.200737 0)
(-0.357808 0.240072 0)
(-0.285216 0.271887 0)
(-0.215401 0.296609 0)
(-0.149025 0.314785 0)
(-0.0860379 0.326934 0)
(-0.0259509 0.333629 0)
(0.0317656 0.335072 0)
(0.0873874 0.331002 0)
(0.141148 0.321697 0)
(0.19331 0.307225 0)
(0.244071 0.287488 0)
(0.293455 0.262278 0)
(0.341402 0.231376 0)
(0.391551 0.194427 0)
(0.483904 0.147596 0)
(0.782535 0.0631791 9.71546e-28)
(-0.631013 0.0296866 0)
(-0.611377 0.0810557 0)
(-0.546256 0.125675 0)
(-0.468359 0.164179 0)
(-0.388016 0.195363 0)
(-0.309096 0.220447 0)
(-0.233458 0.239764 0)
(-0.161783 0.25387 0)
(-0.0939678 0.263319 0)
(-0.0293585 0.268737 0)
(0.0327559 0.270424 0)
(0.0927155 0.267997 0)
(0.150814 0.261678 0)
(0.207382 0.251495 0)
(0.262691 0.237284 0)
(0.316857 0.218779 0)
(0.370082 0.195835 0)
(0.427804 0.167433 0)
(0.536905 0.12883 0)
(0.850853 0.0541777 7.93416e-37)
(-0.678196 0.0227006 0)
(-0.652715 0.0647949 0)
(-0.580927 0.0975775 0)
(-0.497043 0.126929 0)
(-0.411208 0.149971 0)
(-0.327227 0.168378 0)
(-0.247016 0.182329 0)
(-0.17131 0.19238 0)
(-0.0999998 0.199108 0)
(-0.0322667 0.203231 0)
(0.0328311 0.205255 0)
(0.0957506 0.204649 0)
(0.156878 0.201565 0)
(0.216624 0.195972 0)
(0.275323 0.187598 0)
(0.333178 0.176066 0)
(0.390761 0.16119 0)
(0.455963 0.141118 0)
(0.583066 0.109804 0)
(0.911875 0.0432689 5.43677e-37)
(-0.714594 0.0155172 0)
(-0.683196 0.0479369 0)
(-0.605917 0.0686917 0)
(-0.517433 0.0889253 0)
(-0.427428 0.10381 0)
(-0.339684 0.115639 0)
(-0.256156 0.124356 0)
(-0.177664 0.13049 0)
(-0.104166 0.13458 0)
(-0.0347419 0.137424 0)
(0.0318408 0.139905 0)
(0.0962652 0.141314 0)
(0.159065 0.141721 0)
(0.220745 0.141011 0)
(0.281708 0.138764 0)
(0.342254 0.134434 0)
(0.403505 0.127679 0)
(0.476653 0.115653 0)
(0.623448 0.0907171 0)
(0.966731 0.030102 1.87728e-36)
(-0.739821 0.00802781 0)
(-0.702629 0.0303213 0)
(-0.621168 0.0388344 0)
(-0.52953 0.0498142 0)
(-0.436751 0.0565251 0)
(-0.346606 0.0619148 0)
(-0.261037 0.0656472 0)
(-0.180954 0.0681865 0)
(-0.106481 0.0699319 0)
(-0.0367791 0.071649 0)
(0.0296614 0.074728 0)
(0.0940283 0.0782925 0)
(0.157091 0.0823995 0)
(0.219448 0.0868415 0)
(0.281592 0.0909886 0)
(0.343956 0.0940243 0)
(0.408437 0.0953406 0)
(0.490669 0.0908746 0)
(0.659269 0.0711685 0)
(1.01838 0.0140363 1.46645e-36)
(-0.753322 3.54025e-05 0)
(-0.710652 0.011588 0)
(-0.626448 0.00764246 0)
(-0.533198 0.00903923 0)
(-0.439169 0.00757884 0)
(-0.348096 0.00666971 0)
(-0.261819 0.00576232 0)
(-0.181281 0.00522041 0)
(-0.106771 0.00520678 0)
(-0.037754 0.00623489 0)
(0.0271058 0.0100682 0)
(0.0896363 0.0157602 0)
(0.151355 0.0236469 0)
(0.212974 0.033449 0)
(0.275071 0.0442487 0)
(0.338299 0.0547271 0)
(0.40586 0.0638919 0)
(0.499243 0.0660241 0)
(0.692073 0.0493888 0)
(1.06785 -0.00527608 1.12205e-36)
(-0.754039 -0.00877115 0)
(-0.706303 -0.00884598 0)
(-0.620951 -0.0253902 0)
(-0.52787 -0.0341366 0)
(-0.434467 -0.0437605 0)
(-0.344341 -0.0509015 0)
(-0.259172 -0.0560827 0)
(-0.179847 -0.0590724 0)
(-0.106716 -0.059944 0)
(-0.0396109 -0.058628 0)
(0.0224068 -0.0538812 0)
(0.0816486 -0.0463879 0)
(0.140431 -0.0350777 0)
(0.199857 -0.0202603 0)
(0.261258 -0.0028213 0)
(0.325701 0.0155089 0)
(0.396691 0.0324298 0)
(0.504 0.0395464 0)
(0.722912 0.0224682 0)
(1.11239 -0.0278805 8.42673e-37)
(-0.740642 -0.01879 0)
(-0.689409 -0.0314069 0)
(-0.604881 -0.061099 0)
(-0.513927 -0.0807236 0)
(-0.423153 -0.0988841 0)
(-0.335935 -0.112485 0)
(-0.253789 -0.121921 0)
(-0.17746 -0.127061 0)
(-0.107183 -0.128144 0)
(-0.0428363 -0.125508 0)
(0.0161546 -0.118623 0)
(0.0716219 -0.108917 0)
(0.126376 -0.0942832 0)
(0.182284 -0.074887 0)
(0.240897 -0.0516109 0)
(0.304233 -0.0263282 0)
(0.380213 -0.00264143 0)
(0.507728 0.00619338 0)
(0.757054 -0.0124549 0)
(1.14531 -0.0519717 6.1128e-37)
(-0.711723 -0.0302747 0)
(-0.658934 -0.0564461 0)
(-0.577063 -0.100519 0)
(-0.490269 -0.132167 0)
(-0.404268 -0.159789 0)
(-0.32212 -0.180632 0)
(-0.245152 -0.194978 0)
(-0.17392 -0.202776 0)
(-0.10843 -0.204332 0)
(-0.0482898 -0.200133 0)
(0.00717587 -0.189934 0)
(0.0584377 -0.176873 0)
(0.108232 -0.158375 0)
(0.159543 -0.13423 0)
(0.214652 -0.105545 0)
(0.277686 -0.0750008 0)
(0.363163 -0.0490941 0)
(0.514821 -0.041217 0)
(0.781357 -0.0541056 0)
(1.16492 -0.0757435 4.31422e-37)
(-0.66543 -0.043505 0)
(-0.613283 -0.0845962 0)
(-0.536081 -0.14474 0)
(-0.455664 -0.190012 0)
(-0.376718 -0.228521 0)
(-0.301884 -0.257979 0)
(-0.232273 -0.278663 0)
(-0.168243 -0.290671 0)
(-0.109581 -0.294373 0)
(-0.0556397 -0.290337 0)
(-0.00562887 -0.278948 0)
(0.0408047 -0.260666 0)
(0.0852105 -0.238265 0)
(0.131437 -0.209818 0)
(0.183455 -0.177245 0)
(0.248989 -0.144405 0)
(0.347571 -0.11821 0)
(0.51679 -0.10517 0)
(0.789915 -0.101069 0)
(1.16715 -0.0971738 2.92687e-37)
(-0.599427 -0.0587661 0)
(-0.550447 -0.116338 0)
(-0.480107 -0.194575 0)
(-0.408448 -0.255467 0)
(-0.338937 -0.306679 0)
(-0.27366 -0.346549 0)
(-0.213469 -0.375495 0)
(-0.158551 -0.393881 0)
(-0.108566 -0.40222 0)
(-0.0627507 -0.401153 0)
(-0.0201159 -0.391251 0)
(0.020255 -0.37225 0)
(0.0593378 -0.348688 0)
(0.100914 -0.318925 0)
(0.151076 -0.285001 0)
(0.220023 -0.250136 0)
(0.32714 -0.217576 0)
(0.50241 -0.18705 0)
(0.773361 -0.152988 0)
(1.14564 -0.113223 1.87569e-37)
(-0.509876 -0.0764115 0)
(-0.467458 -0.151972 0)
(-0.406737 -0.250391 0)
(-0.346546 -0.329094 0)
(-0.28901 -0.395006 0)
(-0.235526 -0.447239 0)
(-0.18668 -0.486522 0)
(-0.142547 -0.513638 0)
(-0.102754 -0.529433 0)
(-0.0665244 -0.534769 0)
(-0.0326818 -0.530418 0)
(0.000257859 -0.516436 0)
(0.0335917 -0.495023 0)
(0.0704031 -0.467377 0)
(0.1175 -0.43344 0)
(0.185296 -0.393972 0)
(0.290821 -0.347544 0)
(0.459187 -0.288897 0)
(0.718849 -0.21194 0)
(1.0895 -0.12124 1.10894e-37)
(-0.392004 -0.0973599 0)
(-0.360495 -0.192225 0)
(-0.31304 -0.312158 0)
(-0.267506 -0.410431 0)
(-0.224579 -0.492831 0)
(-0.184842 -0.559299 0)
(-0.148594 -0.610927 0)
(-0.115849 -0.648936 0)
(-0.0863226 -0.674548 0)
(-0.0594186 -0.688881 0)
(-0.0341674 -0.692878 0)
(-0.00921072 -0.687055 0)
(0.0169291 -0.670942 0)
(0.0465272 -0.647537 0)
(0.0853825 -0.614612 0)
(0.142771 -0.570037 0)
(0.23269 -0.508011 0)
(0.376878 -0.41734 0)
(0.609456 -0.28631 0)
(0.978457 -0.122262 5.89418e-38)
(-0.25041 -0.122905 0)
(-0.230526 -0.23816 0)
(-0.198899 -0.378589 0)
(-0.170965 -0.496277 0)
(-0.145809 -0.595681 0)
(-0.12312 -0.677551 0)
(-0.102856 -0.743272 0)
(-0.0849521 -0.794331 0)
(-0.0692157 -0.832206 0)
(-0.0552766 -0.858228 0)
(-0.0424704 -0.873462 0)
(-0.0296913 -0.878537 0)
(-0.015291 -0.873184 0)
(0.00296479 -0.856765 0)
(0.0286526 -0.828962 0)
(0.0690008 -0.784383 0)
(0.135313 -0.713057 0)
(0.246546 -0.593687 0)
(0.441221 -0.395752 0)
(0.793852 -0.114875 2.7698e-38)
(-0.124387 -0.147779 0)
(-0.106508 -0.282048 0)
(-0.0854087 -0.437874 0)
(-0.0701079 -0.570646 0)
(-0.057596 -0.684344 0)
(-0.0467752 -0.78065 0)
(-0.03719 -0.861324 0)
(-0.0285071 -0.928061 0)
(-0.020402 -0.982359 0)
(-0.0125156 -1.02554 0)
(-0.00436867 -1.05857 0)
(0.00472399 -1.0819 0)
(0.0157263 -1.09498 0)
(0.0299448 -1.09548 0)
(0.0497888 -1.08004 0)
(0.0795105 -1.04249 0)
(0.12595 -0.967366 0)
(0.20201 -0.818215 0)
(0.339637 -0.526846 0)
(0.654299 0.0195171 1.04236e-38)
(1.51747 -0.0231606 -1.32955e-16)
(2.11516 0.00663029 4.0642e-24)
(2.46975 -0.00668518 5.92421e-17)
(2.7284 -0.00886822 4.72346e-17)
(2.92254 -0.0116608 0)
(3.07336 -0.0125475 -3.18808e-17)
(3.19579 -0.013239 2.72956e-17)
(3.30095 -0.0139523 2.39385e-17)
(3.3939 -0.014336 4.29835e-17)
(3.47797 -0.0143463 0)
(3.55447 -0.013962 1.77138e-17)
(3.62403 -0.0132658 1.62735e-17)
(3.6877 -0.0123432 -3.00925e-17)
(3.74609 -0.0112814 2.55902e-25)
(3.79979 -0.0101564 1.30481e-17)
(3.84934 -0.00903119 -1.22246e-17)
(3.89529 -0.00795645 0)
(3.93813 -0.00697196 -2.16817e-17)
(3.97833 -0.00610781 2.05227e-17)
(4.01651 -0.00538224 0)
(4.05289 -0.00481458 -3.70434e-17)
(4.08787 -0.00441064 -1.75465e-17)
(4.12192 -0.00417188 1.67752e-17)
(4.15522 -0.00409566 3.21494e-17)
(4.18818 -0.00417323 0)
(4.22091 -0.0043926 2.97041e-17)
(4.25375 -0.00473741 -1.41424e-17)
(4.28703 -0.00519254 -2.73288e-17)
(4.3206 -0.00573254 -1.32228e-17)
(4.35473 -0.0063362 0)
(4.38962 -0.00698215 0)
(4.4252 -0.00764297 -1.19745e-17)
(4.46147 -0.00829387 1.16017e-17)
(4.49857 -0.0089132 0)
(4.53644 -0.00947761 -1.09511e-17)
(4.57503 -0.00996545 0)
(4.61424 -0.0103575 9.28803e-26)
(4.65407 -0.0106384 0)
(4.6944 -0.0107935 -9.89655e-18)
(4.7349 -0.0108128 0)
(4.77553 -0.0106914 0)
(4.81623 -0.0104268 9.27318e-18)
(4.85665 -0.0100228 9.14359e-18)
(4.89685 -0.00948547 1.77855e-17)
(4.93695 -0.00881993 -1.73509e-17)
(4.97681 -0.0080399 0)
(5.01639 -0.0071627 -1.64077e-17)
(5.05549 -0.00621569 -1.60005e-17)
(5.09398 -0.00523383 0)
(5.132 -0.0042553 0)
(5.16963 -0.00332629 0)
(5.207 -0.00251344 -6.8636e-25)
(5.24453 -0.00186244 -2.76093e-17)
(5.28308 -0.001477 0)
(5.32404 -0.00134034 0)
(5.36983 -0.00167804 0)
(5.42477 -0.00217078 -4.44291e-17)
(5.49775 -0.00347691 -7.56908e-17)
(5.63915 -0.00315276 0)
(1.51999 -0.0139101 1.1211e-23)
(2.12121 0.0152945 -1.5688e-16)