/*--------------------------------*- C++ -*----------------------------------*\
| =========                 |                                                 |
| \\      /  F ield         | OpenFOAM: The Open Source CFD Toolbox           |
|  \\    /   O peration     | Version:  3.0.1                                 |
|   \\  /    A nd           | Web:      www.OpenFOAM.org                      |
|    \\/     M anipulation  |                                                 |
\*---------------------------------------------------------------------------*/
FoamFile
{
    version     2.0;
    format      ascii;
    class       volScalarField;
    location    "2200";
    object      epsilon;
}
// * * * * * * * * * * * * * * * * * * * * * * * * * * * * * * * * * * * * * //

dimensions      [0 2 -3 0 0 0 0];

internalField   nonuniform List<scalar> 
14431
(
35.7015
14.8745
8.92745
6.37122
4.94198
4.05051
3.42288
2.95618
2.5989
2.31557
2.08576
1.89644
1.73716
1.60135
1.4842
1.38215
1.29246
1.21303
1.14221
1.0784
1.02088
0.96876
0.921126
0.877611
0.837539
0.800683
0.766526
0.734673
0.705136
0.677565
0.651677
0.627422
0.604652
0.583159
0.562844
0.543618
0.5254
0.508056
0.491533
0.475832
0.460848
0.446492
0.432779
0.419587
0.406784
0.394333
0.382174
0.370289
0.358669
0.347218
0.335896
0.324674
0.31349
0.30224
0.290784
0.278927
0.266302
0.252039
0.228379
29.7647
14.5764
8.85065
6.32418
4.91391
4.04263
3.42458
2.96166
2.60505
2.32111
2.09046
1.90026
1.74021
1.60376
1.48611
1.38366
1.29368
1.21405
1.14308
1.07918
1.02161
0.969467
0.921836
0.878341
0.8383
0.80149
0.767378
0.735576
0.706091
0.678569
0.652726
0.628513
0.605776
0.584307
0.564007
0.544784
0.526558
0.509194
0.49264
0.476897
0.46186
0.447443
0.43366
0.420393
0.407509
0.394975
0.382731
0.370764
0.359065
0.34754
0.336151
0.324869
0.313636
0.302347
0.290861
0.278983
0.266341
0.252039
0.228263
25.6355
14.1817
8.77058
6.28357
4.8946
4.03585
3.42531
2.96631
2.61073
2.32647
2.09509
1.90407
1.74327
1.60619
1.48804
1.3852
1.29492
1.21508
1.14397
1.07996
1.02234
0.970171
0.922541
0.879064
0.839055
0.802287
0.768221
0.736471
0.707037
0.679565
0.653768
0.629596
0.606892
0.585449
0.565164
0.545946
0.527713
0.510331
0.493746
0.477962
0.462873
0.448394
0.434543
0.4212
0.408236
0.395619
0.383291
0.371241
0.359462
0.347862
0.336406
0.325065
0.313783
0.302454
0.290938
0.279038
0.266379
0.25204
0.228147
22.6871
13.7342
8.68495
6.2497
4.88146
4.03044
3.42575
2.97033
2.61596
2.33162
2.09962
1.90785
1.74634
1.60865
1.48999
1.38676
1.29619
1.21612
1.14486
1.08075
1.02308
0.970877
0.923244
0.879784
0.839804
0.803078
0.769057
0.737357
0.707976
0.680553
0.654803
0.630672
0.608002
0.586584
0.566315
0.547103
0.528864
0.511463
0.494849
0.479024
0.463884
0.449344
0.435425
0.422007
0.408964
0.396264
0.383852
0.371719
0.359861
0.348186
0.336662
0.325262
0.31393
0.302561
0.291015
0.279093
0.266417
0.252042
0.228033
20.526
13.2718
8.5947
6.22163
4.87281
4.0266
3.42629
2.97392
2.62081
2.33653
2.10404
1.9116
1.74941
1.61111
1.49196
1.38834
1.29747
1.21718
1.14576
1.08155
1.02382
0.971586
0.923948
0.880503
0.840551
0.803863
0.769888
0.738238
0.708907
0.681533
0.65583
0.63174
0.609104
0.587713
0.56746
0.548253
0.530009
0.51259
0.495948
0.480083
0.464892
0.450293
0.436307
0.422815
0.409693
0.396911
0.384415
0.3722
0.360262
0.348512
0.33692
0.325461
0.314078
0.302669
0.291093
0.279149
0.266454
0.252045
0.22792
18.9012
12.8198
8.5021
6.19835
4.86754
4.02434
3.42717
2.97724
2.62531
2.3412
2.10832
1.91528
1.75245
1.61359
1.49395
1.38994
1.29877
1.21826
1.14669
1.08237
1.02456
0.9723
0.924655
0.881222
0.841297
0.804646
0.770715
0.739113
0.709832
0.682507
0.656849
0.6328
0.610199
0.588833
0.568597
0.549396
0.531147
0.513712
0.497042
0.481138
0.465898
0.45124
0.437187
0.423623
0.410422
0.397558
0.384979
0.372682
0.360664
0.34884
0.33718
0.325661
0.314227
0.302777
0.29117
0.279204
0.266492
0.252048
0.227808
17.6487
12.3943
8.40968
6.17894
4.86484
4.02356
3.42848
2.98039
2.6295
2.34562
2.11245
1.91888
1.75547
1.61606
1.49595
1.39156
1.3001
1.21936
1.14762
1.08319
1.02532
0.973023
0.925367
0.881943
0.842043
0.805428
0.771538
0.739984
0.710751
0.683474
0.657861
0.633853
0.611285
0.589945
0.569726
0.550532
0.532278
0.514828
0.49813
0.482188
0.4669
0.452184
0.438066
0.424429
0.411151
0.398206
0.385545
0.373165
0.361069
0.34917
0.337442
0.325862
0.314378
0.302887
0.291249
0.27926
0.266529
0.252052
0.227698
16.6556
12.0068
8.31982
6.16257
4.86404
4.02401
3.4302
2.98343
2.6334
2.34979
2.11641
1.92238
1.75844
1.61851
1.49796
1.3932
1.30144
1.22048
1.14858
1.08404
1.02609
0.973754
0.926086
0.882669
0.842791
0.806208
0.77236
0.740851
0.711665
0.684435
0.658866
0.634898
0.612364
0.591049
0.570846
0.551659
0.533401
0.515935
0.499211
0.483232
0.467896
0.453124
0.438941
0.425233
0.411879
0.398854
0.386111
0.37365
0.361475
0.349502
0.337706
0.326066
0.31453
0.302998
0.291328
0.279317
0.266566
0.252056
0.227588
15.8403
11.6676
8.23432
6.14832
4.86443
4.02539
3.43224
2.98634
2.63703
2.35368
2.12016
1.92575
1.76134
1.62094
1.49996
1.39484
1.3028
1.22162
1.14955
1.08489
1.02688
0.974496
0.926811
0.883399
0.843541
0.806989
0.773179
0.741714
0.712574
0.685389
0.659864
0.635934
0.613433
0.592143
0.571957
0.552776
0.534515
0.517034
0.500284
0.484269
0.468887
0.454059
0.439812
0.426035
0.412605
0.399502
0.386678
0.374136
0.361883
0.349836
0.337971
0.326271
0.314684
0.30311
0.291408
0.279373
0.266602
0.252061
0.22748
15.2192
11.3783
8.15414
6.13509
4.86523
4.02725
3.43442
2.98909
2.64036
2.35729
2.1237
1.92899
1.76417
1.62333
1.50195
1.39649
1.30417
1.22277
1.15054
1.08577
1.02767
0.975247
0.927545
0.884134
0.844293
0.80777
0.773997
0.742574
0.713478
0.686337
0.660853
0.636961
0.614492
0.593227
0.573057
0.553883
0.535618
0.518123
0.501348
0.485297
0.469869
0.454987
0.440679
0.426833
0.413329
0.400148
0.387244
0.374623
0.362292
0.350171
0.338238
0.326478
0.314839
0.303223
0.291488
0.27943
0.266639
0.252065
0.227372
0.241239
0.287388
0.337942
0.387142
0.432887
0.475078
0.514268
0.550951
0.585305
0.616843
0.640728
0.655226
0.658555
0.648931
0.624757
0.584981
0.52988
0.465018
0.443662
1.47441
0.3877
0.31832
0.293792
0.273163
0.253241
0.234439
0.217426
0.202708
0.190603
0.181632
0.180976
0.186607
0.19661
0.208808
0.220646
0.229143
0.231123
0.229521
0.363185
2.70771
0.536528
0.374527
0.319979
0.284436
0.254972
0.2288
0.205414
0.184816
0.167038
0.152085
0.140807
0.133813
0.131455
0.13372
0.140039
0.149167
0.159499
0.178964
0.421983
3.43379
0.663521
0.403198
0.324676
0.281082
0.248385
0.220695
0.19656
0.175654
0.157839
0.142937
0.130796
0.12152
0.115488
0.113183
0.115013
0.121109
0.13162
0.160353
0.488646
3.86721
0.769582
0.416616
0.321466
0.274238
0.240371
0.211912
0.187182
0.165962
0.148179
0.133613
0.121889
0.112743
0.106232
0.10267
0.102595
0.106663
0.116291
0.152011
0.557893
4.15155
0.856266
0.420601
0.316634
0.269273
0.235076
0.20544
0.179247
0.156823
0.138374
0.123707
0.112305
0.103642
0.0974853
0.0938844
0.0932256
0.096273
0.105435
0.149096
0.635351
4.37377
0.925345
0.419702
0.314513
0.269353
0.234642
0.202694
0.173665
0.148804
0.128792
0.113493
0.102167
0.0939778
0.0884066
0.0852299
0.0846225
0.0873224
0.0967437
0.150853
0.727461
4.57852
0.978712
0.417635
0.317902
0.275912
0.239686
0.203868
0.17038
0.141676
0.119122
0.102707
0.0913606
0.0837642
0.0790034
0.0765491
0.0763685
0.0791931
0.089707
0.158142
0.841134
4.78912
1.01829
0.417528
0.328511
0.289442
0.250299
0.209007
0.169422
0.135363
0.109163
0.0911338
0.0798107
0.07311
0.0694949
0.0680559
0.0685821
0.0719109
0.0845218
0.173057
0.984617
5.01864
1.04598
0.422132
0.347355
0.310109
0.266729
0.218676
0.171565
0.130582
0.0993828
0.0790471
0.0678281
0.0624403
0.0603391
0.060159
0.061587
0.0657633
0.0818462
0.199302
1.16827
5.27626
1.06362
0.434045
0.375076
0.338222
0.289833
0.2344
0.178833
0.129461
0.0915557
0.0677172
0.0564421
0.0526839
0.052284
0.0534222
0.0558232
0.0612212
0.0829513
0.2434
1.40758
5.58833
1.07305
0.455969
0.412207
0.37459
0.321378
0.258985
0.194974
0.136336
0.0898739
0.0604309
0.0479129
0.045429
0.0463682
0.0485566
0.0518677
0.0590588
0.0903558
0.316812
1.72046
5.95938
1.0762
0.491041
0.459387
0.420804
0.364258
0.296791
0.225927
0.158748
0.102921
0.0652226
0.0475335
0.0434574
0.0441594
0.0466978
0.0508993
0.0612414
0.109846
0.440322
2.1317
6.3518
1.07501
0.539018
0.518424
0.481269
0.424688
0.355544
0.280611
0.206183
0.139695
0.0892848
0.0606473
0.0517165
0.050178
0.0522835
0.0582225
0.0757333
0.158683
0.66445
2.71213
6.67907
1.06923
0.597503
0.592159
0.560989
0.509837
0.445087
0.372177
0.295628
0.221083
0.155999
0.108968
0.0896914
0.0829974
0.0845776
0.0975812
0.142813
0.325326
1.09164
3.33346
6.97878
1.05739
0.668019
0.684097
0.665792
0.628495
0.578185
0.518873
0.452956
0.383454
0.315356
0.256809
0.220043
0.208421
0.215324
0.252718
0.366075
0.708078
1.70315
3.98762
7.31916
1.03663
0.75196
0.797853
0.80199
0.790242
0.76882
0.740939
0.707499
0.669259
0.628112
0.588374
0.558196
0.561991
0.596968
0.686137
0.894636
1.38623
2.51759
4.75985
7.84376
1.00236
0.849726
0.936638
0.975837
1.00409
1.02898
1.05408
1.0801
1.10679
1.13409
1.16321
1.19804
1.25897
1.36534
1.54117
1.85793
2.47281
3.69075
5.9052
8.87267
0.949176
0.95994
1.10457
1.19677
1.28242
1.37174
1.47026
1.58042
1.70317
1.83893
1.98852
2.15446
2.34244
2.59226
2.92691
3.41649
4.21007
5.58679
7.94211
11.138
0.874075
1.08571
1.32502
1.51093
1.69063
1.87746
2.07967
2.30339
2.55407
2.8364
3.15507
3.51621
3.93034
4.42592
5.05746
5.88395
7.05889
8.88678
11.9135
16.6353
0.820395
1.33554
1.84202
2.32666
2.81187
3.31691
3.8478
4.40859
5.01355
5.68095
6.43482
7.30829
8.3496
9.63406
11.2681
13.4153
16.3724
20.7086
27.7436
42.5258
14.1935
11.1438
8.08244
6.12198
4.86555
4.02904
3.43646
2.99153
2.64329
2.36049
2.1269
1.93197
1.76681
1.6256
1.50387
1.39809
1.3055
1.2239
1.15152
1.08663
1.02846
0.975989
0.928266
0.884855
0.845029
0.808532
0.774792
0.743408
0.714353
0.687253
0.661809
0.637952
0.615513
0.594271
0.574116
0.554948
0.53668
0.519172
0.502373
0.486288
0.470818
0.455883
0.441516
0.427605
0.41403
0.400774
0.387794
0.375096
0.36269
0.350498
0.3385
0.32668
0.314992
0.303334
0.291568
0.279486
0.266674
0.25207
0.227271
13.5577
10.9387
8.01563
6.10707
4.8646
4.03037
3.43822
2.99367
2.64588
2.3634
2.12986
1.93477
1.76934
1.6278
1.50574
1.39967
1.30683
1.22503
1.15249
1.08749
1.02925
0.976732
0.928987
0.885573
0.845758
0.809285
0.775576
0.744228
0.715211
0.68815
0.662743
0.63892
0.616509
0.59529
0.57515
0.555988
0.537716
0.520195
0.503373
0.487256
0.471743
0.456759
0.442335
0.42836
0.414717
0.401389
0.388334
0.375562
0.363083
0.350822
0.338759
0.326882
0.315143
0.303445
0.291647
0.279541
0.266709
0.252074
0.227172
13.0438
10.7425
7.95069
6.0891
4.86168
4.03084
3.43953
2.99545
2.64815
2.36601
2.13259
1.93742
1.77176
1.62994
1.50758
1.40124
1.30817
1.22617
1.15348
1.08837
1.03005
0.977487
0.929718
0.886299
0.846494
0.810042
0.776362
0.745048
0.716068
0.689044
0.663673
0.639883
0.617499
0.596302
0.576175
0.557019
0.538743
0.521209
0.504365
0.488216
0.472663
0.45763
0.443149
0.429113
0.415402
0.402003
0.388875
0.376029
0.363478
0.351148
0.33902
0.327085
0.315297
0.303557
0.291727
0.279597
0.266744
0.252078
0.227073
12.5899
10.5548
7.88497
6.06744
4.85636
4.03016
3.44023
2.99683
2.65009
2.36835
2.13511
1.93991
1.77409
1.63202
1.5094
1.4028
1.3095
1.22732
1.15449
1.08927
1.03087
0.978256
0.930461
0.887034
0.847237
0.810803
0.77715
0.745869
0.716924
0.689936
0.664599
0.64084
0.618483
0.597306
0.577193
0.558042
0.539763
0.522216
0.50535
0.48917
0.473577
0.458496
0.44396
0.429863
0.416086
0.402616
0.389416
0.376497
0.363874
0.351475
0.339284
0.327291
0.315453
0.303672
0.291808
0.279654
0.266779
0.252083
0.226975
12.1817
10.3763
7.81687
6.04197
4.84852
4.02818
3.44024
2.99776
2.65168
2.37041
2.13741
1.94225
1.77631
1.63404
1.51118
1.40435
1.31085
1.22849
1.15551
1.09018
1.0317
0.979038
0.931215
0.887779
0.847988
0.81157
0.777942
0.746691
0.71778
0.690825
0.665521
0.641792
0.61946
0.598303
0.578203
0.559056
0.540774
0.523215
0.506327
0.490117
0.474485
0.459357
0.444767
0.430609
0.416767
0.403229
0.389957
0.376966
0.364273
0.351805
0.33955
0.3275
0.315611
0.303788
0.291891
0.279712
0.266814
0.252087
0.226878
11.813
10.2051
7.74535
6.01294
4.83824
4.02487
3.43955
2.99827
2.65295
2.37221
2.1395
1.94443
1.77842
1.636
1.51293
1.40589
1.31218
1.22966
1.15654
1.0911
1.03255
0.979833
0.93198
0.888534
0.848746
0.812343
0.778738
0.747515
0.718635
0.691712
0.66644
0.642739
0.620431
0.599293
0.579205
0.560063
0.541777
0.524206
0.507297
0.491056
0.475386
0.460212
0.44557
0.431353
0.417447
0.403841
0.390499
0.377436
0.364673
0.352137
0.339819
0.32771
0.315771
0.303906
0.291976
0.27977
0.266849
0.25209
0.226781
11.4812
10.0394
7.67035
5.98089
4.82582
4.02036
3.4382
2.99837
2.65392
2.37376
2.1414
1.94647
1.78044
1.63789
1.51465
1.40741
1.31352
1.23083
1.15758
1.09204
1.03341
0.980641
0.932758
0.889299
0.849512
0.813122
0.779537
0.74834
0.71949
0.692598
0.667355
0.643681
0.621397
0.600276
0.580199
0.561061
0.542772
0.525188
0.508258
0.491989
0.476281
0.461062
0.446368
0.432093
0.418124
0.404452
0.39104
0.377907
0.365074
0.352472
0.340089
0.327924
0.315934
0.304026
0.292061
0.279829
0.266884
0.252094
0.226686
11.185
9.87594
7.59404
5.94674
4.81173
4.01487
3.43629
2.99813
2.65465
2.37512
2.14313
1.94837
1.78236
1.63972
1.51632
1.40891
1.31486
1.23201
1.15863
1.09299
1.03428
0.981463
0.933548
0.890074
0.850287
0.813907
0.780341
0.749168
0.720345
0.693482
0.668267
0.644618
0.622356
0.601252
0.581185
0.562052
0.543758
0.526162
0.509212
0.492913
0.477169
0.461906
0.447161
0.43283
0.4188
0.405061
0.391581
0.378379
0.365477
0.352808
0.340363
0.328139
0.316099
0.304148
0.292149
0.279889
0.26692
0.252098
0.226591
10.9218
9.71483
7.51851
5.91167
4.79662
4.0087
3.434
2.99764
2.65518
2.3763
2.14472
1.95016
1.78419
1.64148
1.51796
1.4104
1.31619
1.2332
1.1597
1.09395
1.03517
0.982297
0.934349
0.890859
0.85107
0.814699
0.781149
0.749999
0.721201
0.694364
0.669176
0.645551
0.623309
0.602221
0.582164
0.563034
0.544736
0.527128
0.510157
0.493831
0.478051
0.462744
0.447949
0.433563
0.419472
0.405669
0.392122
0.378851
0.365882
0.353146
0.340638
0.328358
0.316266
0.304272
0.292237
0.27995
0.266956
0.252101
0.226497
10.688
9.55788
7.44537
5.87702
4.78125
4.00225
3.43151
2.99702
2.65558
2.37735
2.14618
1.95183
1.78593
1.64319
1.51957
1.41187
1.31751
1.23439
1.16077
1.09493
1.03607
0.983145
0.935163
0.891655
0.851862
0.815497
0.781962
0.750832
0.722057
0.695246
0.670082
0.64648
0.624257
0.603183
0.583136
0.564008
0.545705
0.528085
0.511095
0.49474
0.478925
0.463576
0.448733
0.434293
0.420142
0.406276
0.392663
0.379324
0.366287
0.353487
0.340916
0.328578
0.316436
0.304398
0.292328
0.280012
0.266992
0.252104
0.226403
10.4663
9.4073
7.37658
5.84433
4.7665
3.99598
3.42907
2.99638
2.65592
2.37832
2.14754
1.95342
1.7876
1.64484
1.52114
1.41332
1.31883
1.23558
1.16185
1.09591
1.03698
0.984005
0.935988
0.892462
0.852663
0.816302
0.78278
0.751668
0.722915
0.696126
0.670985
0.647404
0.625199
0.604139
0.5841
0.564974
0.546666
0.529034
0.512024
0.495642
0.479793
0.464402
0.449511
0.435018
0.42081
0.406881
0.393203
0.379798
0.366695
0.353829
0.341197
0.328801
0.316608
0.304526
0.29242
0.280075
0.267028
0.252107
0.22631
10.2447
9.2669
7.31484
5.81537
4.75336
3.99039
3.42692
2.99585
2.65628
2.37923
2.14883
1.95493
1.78921
1.64645
1.52267
1.41475
1.32014
1.23677
1.16293
1.09691
1.03791
0.984877
0.936825
0.893279
0.853472
0.817115
0.783602
0.752507
0.723774
0.697006
0.671886
0.648325
0.626137
0.605088
0.585057
0.565932
0.547619
0.529975
0.512945
0.496537
0.480654
0.465222
0.450285
0.43574
0.421474
0.407485
0.393742
0.380272
0.367103
0.354173
0.341479
0.329027
0.316783
0.304657
0.292513
0.280139
0.267065
0.252109
0.226218
10.0348
9.14244
7.26374
5.7921
4.74284
3.98596
3.42529
2.99554
2.6567
2.38014
2.15007
1.95638
1.79075
1.648
1.52417
1.41616
1.32144
1.23797
1.16403
1.09791
1.03884
0.985762
0.937674
0.894106
0.85429
0.817934
0.78443
0.753349
0.724634
0.697886
0.672785
0.649242
0.627068
0.606032
0.586006
0.566882
0.548564
0.530907
0.513858
0.497424
0.481507
0.466036
0.451053
0.436457
0.422136
0.408087
0.394281
0.380746
0.367513
0.354519
0.341764
0.329255
0.316959
0.304789
0.292609
0.280203
0.267102
0.252112
0.226127
9.85814
9.04337
7.22787
5.77665
4.73593
3.98315
3.42437
2.99555
2.65724
2.38106
2.15127
1.95777
1.79224
1.64951
1.52564
1.41755
1.32274
1.23916
1.16512
1.09893
1.03979
0.986658
0.938534
0.894943
0.855117
0.81876
0.785264
0.754195
0.725495
0.698765
0.673682
0.650155
0.627995
0.606969
0.586949
0.567825
0.5495
0.531832
0.514763
0.498303
0.482354
0.466844
0.451816
0.43717
0.422794
0.408687
0.394819
0.381221
0.367923
0.354867
0.342051
0.329486
0.317139
0.304924
0.292706
0.280269
0.267139
0.252114
0.226036
9.74489
8.98373
7.21277
5.77116
4.73349
3.98229
3.42431
2.99591
2.65791
2.382
2.15245
1.95911
1.79368
1.65098
1.52708
1.41892
1.32402
1.24035
1.16623
1.09995
1.04075
0.987565
0.939404
0.895791
0.855953
0.819593
0.786102
0.755043
0.726358
0.699643
0.674576
0.651064
0.628917
0.6079
0.587884
0.56876
0.550429
0.532748
0.51566
0.499174
0.483193
0.467646
0.452574
0.437879
0.42345
0.409285
0.395357
0.381695
0.368335
0.355216
0.342341
0.329718
0.317321
0.305061
0.292805
0.280336
0.267177
0.252116
0.225946
9.74758
8.9836
7.22474
5.77745
4.73606
3.98353
3.42513
2.99664
2.65871
2.38297
2.15359
1.96041
1.79507
1.6524
1.52849
1.42027
1.3253
1.24154
1.16733
1.10098
1.04172
0.988483
0.940286
0.896649
0.856797
0.820434
0.786946
0.755896
0.727222
0.700522
0.675469
0.651971
0.629834
0.608825
0.588813
0.569687
0.55135
0.533656
0.516549
0.500038
0.484026
0.468441
0.453327
0.438584
0.424102
0.40988
0.395893
0.38217
0.368748
0.355567
0.342632
0.329954
0.317505
0.3052
0.292905
0.280404
0.267215
0.252118
0.225857
9.96429
9.07101
7.26996
5.79648
4.74364
3.98676
3.42675
2.99769
2.65962
2.38395
2.15471
1.96166
1.79642
1.65379
1.52986
1.42161
1.32656
1.24273
1.16844
1.10202
1.0427
0.989412
0.941178
0.897516
0.85765
0.821281
0.787795
0.756752
0.728088
0.7014
0.67636
0.652873
0.630747
0.609744
0.589735
0.570607
0.552263
0.534556
0.517431
0.500895
0.484852
0.46923
0.454074
0.439285
0.424751
0.410474
0.396428
0.382645
0.369161
0.35592
0.342925
0.330191
0.317691
0.305341
0.293007
0.280474
0.267253
0.252119
0.225768
10.5913
9.28605
7.35297
5.82755
4.75545
3.99153
3.42894
2.99893
2.66059
2.38491
2.15578
1.96286
1.79771
1.65513
1.53121
1.42292
1.32782
1.24391
1.16956
1.10307
1.04368
0.99035
0.94208
0.898393
0.858512
0.822136
0.788649
0.757611
0.728956
0.702278
0.67725
0.653773
0.631655
0.610657
0.59065
0.57152
0.553168
0.535448
0.518304
0.501744
0.485671
0.470013
0.454816
0.439981
0.425397
0.411066
0.396963
0.38312
0.369576
0.356274
0.343221
0.330431
0.31788
0.305484
0.293111
0.280544
0.267292
0.25212
0.22568
12.0244
9.68561
7.47386
5.8675
4.76982
3.99713
3.43139
3.00025
2.66155
2.38584
2.15681
1.964
1.79896
1.65643
1.53253
1.42421
1.32906
1.2451
1.17067
1.10412
1.04468
0.991299
0.942992
0.899279
0.859381
0.822997
0.789508
0.758474
0.729826
0.703157
0.678137
0.65467
0.632559
0.611565
0.591559
0.572426
0.554066
0.536333
0.51917
0.502585
0.486483
0.47079
0.455553
0.440673
0.42604
0.411656
0.397496
0.383595
0.369991
0.356629
0.343518
0.330673
0.318071
0.30563
0.293217
0.280615
0.267331
0.252121
0.225592
14.9802
10.3146
7.62267
5.91031
4.78443
4.0027
3.43379
3.0015
2.66245
2.38671
2.15777
1.9651
1.80016
1.6577
1.53381
1.42548
1.33029
1.24627
1.17179
1.10518
1.04568
0.992256
0.943913
0.900174
0.860259
0.823865
0.790373
0.75934
0.730697
0.704035
0.679024
0.655563
0.633458
0.612468
0.592462
0.573324
0.554956
0.537209
0.520028
0.50342
0.487288
0.47156
0.456284
0.441361
0.426679
0.412243
0.398028
0.384069
0.370407
0.356987
0.343818
0.330918
0.318265
0.305777
0.293325
0.280688
0.267371
0.252122
0.225505
20.8982
11.168
7.77756
5.94889
4.79721
4.00761
3.43592
3.00262
2.66326
2.38751
2.15868
1.96614
1.80131
1.65893
1.53507
1.42674
1.33152
1.24745
1.17291
1.10624
1.04669
0.993222
0.944844
0.901077
0.861144
0.824739
0.791243
0.76021
0.73157
0.704914
0.679909
0.656454
0.634353
0.613366
0.593358
0.574216
0.555839
0.538079
0.520879
0.504247
0.488086
0.472325
0.45701
0.442044
0.427315
0.412828
0.398559
0.384543
0.370823
0.357345
0.344119
0.331164
0.31846
0.305927
0.293434
0.280762
0.267411
0.252123
0.225419
49.731
12.5244
7.92571
5.98157
4.80799
4.01183
3.43778
3.00361
2.66399
2.38825
2.15954
1.96713
1.80242
1.66012
1.53631
1.42798
1.33273
1.24862
1.17403
1.10731
1.04771
0.994197
0.945783
0.90199
0.862037
0.82562
0.792118
0.761083
0.732446
0.705793
0.680793
0.657342
0.635245
0.614258
0.594249
0.575101
0.556715
0.538941
0.521722
0.505067
0.488878
0.473084
0.457732
0.442723
0.427948
0.413411
0.399088
0.385017
0.371241
0.357705
0.344422
0.331413
0.318658
0.306079
0.293545
0.280837
0.267451
0.252123
0.225333
42.4085
13.0183
8.04944
6.01289
4.81844
4.01594
3.43959
3.00456
2.66469
2.38895
2.16035
1.96808
1.8035
1.66128
1.53752
1.4292
1.33393
1.24979
1.17515
1.10838
1.04873
0.99518
0.946731
0.90291
0.862938
0.826508
0.792998
0.76196
0.733323
0.706673
0.681675
0.658228
0.636132
0.615146
0.595134
0.57598
0.557584
0.539796
0.522559
0.50588
0.489663
0.473837
0.458448
0.443398
0.428578
0.413992
0.399617
0.385491
0.371658
0.358066
0.344727
0.331665
0.318859
0.306233
0.293658
0.280913
0.267492
0.252124
0.225248
36.9651
13.2069
8.14867
6.0447
4.82979
4.0205
3.44159
3.00559
2.6654
2.38964
2.16114
1.96901
1.80455
1.66242
1.53871
1.4304
1.33513
1.25095
1.17627
1.10946
1.04977
0.996171
0.947688
0.903839
0.863846
0.827402
0.793882
0.76284
0.734202
0.707552
0.682557
0.659111
0.637016
0.616028
0.596013
0.576853
0.558446
0.540644
0.523388
0.506687
0.490442
0.474584
0.459159
0.444069
0.429205
0.41457
0.400144
0.385965
0.372077
0.358428
0.345034
0.331918
0.319062
0.30639
0.293772
0.28099
0.267534
0.252124
0.225163
32.8762
13.1913
8.21589
6.07463
4.84198
4.02575
3.44399
3.00682
2.66621
2.39037
2.16194
1.96993
1.80558
1.66354
1.53988
1.43159
1.33631
1.25211
1.17739
1.11054
1.0508
0.997169
0.948651
0.904775
0.86476
0.828301
0.794772
0.763724
0.735082
0.708432
0.683437
0.659992
0.637896
0.616906
0.596886
0.577718
0.559301
0.541484
0.52421
0.507486
0.491215
0.475325
0.459864
0.444735
0.429828
0.415146
0.40067
0.386438
0.372495
0.358792
0.345343
0.332173
0.319266
0.306548
0.293889
0.281069
0.267576
0.252124
0.225079
29.7654
13.0409
8.24983
6.09988
4.85433
4.03167
3.44686
3.00832
2.66717
2.39117
2.16277
1.97084
1.8066
1.66464
1.54104
1.43278
1.33749
1.25327
1.17852
1.11162
1.05185
0.998174
0.949623
0.905718
0.865682
0.829206
0.795665
0.76461
0.735965
0.709312
0.684316
0.660869
0.638772
0.617779
0.597754
0.578578
0.560149
0.542318
0.525025
0.508278
0.491981
0.47606
0.460565
0.445397
0.430447
0.41572
0.401194
0.38691
0.372914
0.359156
0.345653
0.33243
0.319473
0.306708
0.294007
0.281148
0.267618
0.252124
0.224996
27.3605
12.8116
8.25425
6.11881
4.86612
4.03808
3.45023
3.01016
2.66832
2.39208
2.16364
1.97178
1.80762
1.66574
1.54219
1.43395
1.33867
1.25442
1.17964
1.11271
1.0529
0.999185
0.950601
0.906669
0.86661
0.830117
0.796563
0.7655
0.736848
0.710192
0.685193
0.661745
0.639645
0.618647
0.598616
0.579431
0.560991
0.543144
0.525833
0.509064
0.49274
0.476789
0.46126
0.446054
0.431063
0.41629
0.401717
0.387382
0.373333
0.359521
0.345965
0.332689
0.319682
0.306871
0.294126
0.281229
0.267661
0.252124
0.224913
25.4703
12.5402
8.23395
6.13068
4.87676
4.04476
3.45405
3.01234
2.6697
2.39311
2.16458
1.97275
1.80865
1.66684
1.54333
1.43512
1.33984
1.25558
1.18077
1.1138
1.05395
1.0002
0.951586
0.907625
0.867543
0.831032
0.797465
0.766392
0.737734
0.711072
0.68607
0.662618
0.640513
0.619511
0.599472
0.580278
0.561826
0.543964
0.526634
0.509843
0.493493
0.477512
0.46195
0.446708
0.431675
0.416859
0.402237
0.387853
0.373752
0.359888
0.346278
0.33295
0.319893
0.307035
0.294248
0.281311
0.267705
0.252124
0.224831
23.9623
12.2492
8.19337
6.13525
4.88574
4.05147
3.45825
3.01488
2.67132
2.3943
2.16561
1.97376
1.8097
1.66794
1.54448
1.43629
1.34101
1.25673
1.1819
1.11489
1.05501
1.00123
0.952577
0.908589
0.868483
0.831953
0.798371
0.767287
0.73862
0.711953
0.686945
0.663488
0.641378
0.620369
0.600323
0.581119
0.562654
0.544777
0.527429
0.510615
0.49424
0.47823
0.462635
0.447356
0.432284
0.417424
0.402757
0.388323
0.374172
0.360255
0.346592
0.333213
0.320106
0.307201
0.294371
0.281394
0.267749
0.252124
0.224749
22.7427
11.9529
8.13658
6.13268
4.89268
4.05797
3.46272
3.01774
2.67319
2.39565
2.16675
1.97483
1.81078
1.66906
1.54562
1.43745
1.34217
1.25789
1.18303
1.11599
1.05607
1.00226
0.953574
0.909557
0.869428
0.832878
0.799281
0.768184
0.739508
0.712833
0.687819
0.664356
0.64224
0.621224
0.601169
0.581954
0.563476
0.545584
0.528217
0.511381
0.49498
0.478942
0.463315
0.448001
0.43289
0.417987
0.403274
0.388792
0.374591
0.360623
0.346908
0.333477
0.320321
0.307369
0.294496
0.281479
0.267793
0.252123
0.224668
21.7441
11.6603
8.06724
6.12342
4.89734
4.06403
3.46737
3.02088
2.6753
2.39718
2.16799
1.97596
1.8119
1.67019
1.54678
1.43862
1.34334
1.25904
1.18416
1.11709
1.05714
1.00329
0.954577
0.910532
0.870378
0.833808
0.800194
0.769083
0.740397
0.713713
0.688691
0.665221
0.643098
0.622074
0.602009
0.582784
0.564292
0.546384
0.528998
0.512141
0.495715
0.479648
0.463989
0.448641
0.433491
0.418548
0.40379
0.389261
0.37501
0.360991
0.347225
0.333743
0.320538
0.307539
0.294622
0.281564
0.267838
0.252123
0.224588
20.9168
11.3772
7.98856
6.10811
4.89959
4.06948
3.47209
3.02427
2.67765
2.39888
2.16934
1.97716
1.81305
1.67134
1.54794
1.43979
1.34451
1.26019
1.18529
1.1182
1.05821
1.00433
0.955585
0.911511
0.871332
0.834741
0.80111
0.769985
0.741287
0.714593
0.689562
0.666084
0.643952
0.622919
0.602845
0.583607
0.565102
0.547177
0.529772
0.512894
0.496443
0.480349
0.464659
0.449276
0.43409
0.419106
0.404304
0.389728
0.375429
0.36136
0.347543
0.334011
0.320757
0.307711
0.29475
0.281651
0.267884
0.252123
0.224508
20.2236
11.1069
7.90331
6.08751
4.89946
4.07419
3.47676
3.02784
2.68021
2.40075
2.17082
1.97844
1.81424
1.67251
1.54911
1.44096
1.34568
1.26135
1.18642
1.1193
1.05929
1.00537
0.956598
0.912496
0.872292
0.835679
0.802029
0.770889
0.742177
0.715472
0.690432
0.666944
0.644803
0.62376
0.603675
0.584425
0.565906
0.547965
0.530541
0.51364
0.497166
0.481044
0.465324
0.449908
0.434685
0.419661
0.404816
0.390195
0.375849
0.36173
0.347863
0.334281
0.320977
0.307885
0.29488
0.281739
0.26793
0.252123
0.224429
19.6364
10.8513
7.81382
6.06243
4.89702
4.07806
3.48132
3.03154
2.68294
2.40277
2.1724
1.97978
1.81548
1.6737
1.55029
1.44214
1.34685
1.26251
1.18756
1.12041
1.06036
1.00642
0.957614
0.913484
0.873255
0.83662
0.802951
0.771794
0.743069
0.716352
0.6913
0.667802
0.645651
0.624597
0.6045
0.585237
0.566703
0.548746
0.531303
0.514381
0.497882
0.481733
0.465984
0.450535
0.435276
0.420213
0.405327
0.390661
0.376267
0.3621
0.348183
0.334552
0.3212
0.308061
0.295011
0.281827
0.267977
0.252122
0.22435
19.1334
10.6114
7.72209
6.03372
4.89244
4.08106
3.48567
3.03531
2.68582
2.40493
2.17409
1.9812
1.81676
1.67492
1.55149
1.44332
1.34802
1.26366
1.1887
1.12152
1.06145
1.00747
0.958635
0.914477
0.874222
0.837564
0.803875
0.772701
0.743961
0.71723
0.692167
0.668657
0.646495
0.62543
0.60532
0.586044
0.567495
0.54952
0.532058
0.515116
0.498593
0.482418
0.466639
0.451158
0.435864
0.420763
0.405835
0.391126
0.376686
0.362471
0.348505
0.334824
0.321424
0.308238
0.295144
0.281918
0.268024
0.252122
0.224272
18.6975
10.3875
7.62985
6.0022
4.88593
4.08316
3.48974
3.03909
2.68881
2.4072
2.17587
1.98269
1.81808
1.67617
1.55269
1.44451
1.3492
1.26482
1.18983
1.12263
1.06253
1.00852
0.959659
0.915473
0.875192
0.838511
0.804802
0.773609
0.744853
0.718108
0.693032
0.66951
0.647336
0.626258
0.606136
0.586845
0.568281
0.550289
0.532808
0.515844
0.499298
0.483096
0.467289
0.451777
0.436448
0.42131
0.406342
0.391589
0.377104
0.362842
0.348827
0.335098
0.321649
0.308417
0.295278
0.282009
0.268072
0.252122
0.224194
18.3143
10.1801
7.53864
5.9687
4.87775
4.08437
3.49348
3.04283
2.69186
2.40957
2.17773
1.98423
1.81944
1.67743
1.55391
1.44571
1.35037
1.26598
1.19097
1.12375
1.06361
1.00958
0.960686
0.916472
0.876165
0.83946
0.80573
0.774519
0.745745
0.718986
0.693895
0.67036
0.648173
0.627082
0.606946
0.587641
0.569061
0.551052
0.533552
0.516567
0.499997
0.48377
0.467934
0.452391
0.437029
0.421854
0.406847
0.392052
0.377522
0.363213
0.349151
0.335373
0.321877
0.308598
0.295414
0.282101
0.26812
0.252122
0.224117
17.9715
9.98949
7.44987
5.93399
4.86814
4.08469
3.49682
3.04645
2.69493
2.41199
2.17964
1.98581
1.82083
1.67871
1.55514
1.4469
1.35155
1.26714
1.19211
1.12486
1.0647
1.01064
0.961716
0.917474
0.87714
0.840412
0.80666
0.775429
0.746638
0.719862
0.694756
0.671207
0.649006
0.627902
0.607751
0.588432
0.569835
0.551809
0.534289
0.517283
0.500691
0.484438
0.468575
0.453002
0.437606
0.422395
0.407349
0.392513
0.37794
0.363585
0.349475
0.33565
0.322106
0.30878
0.295551
0.282194
0.268169
0.252122
0.22404
17.6573
9.81673
7.36481
5.89877
4.85732
4.08413
3.49969
3.04988
2.69796
2.41443
2.1816
1.98744
1.82225
1.68001
1.55638
1.44811
1.35273
1.2683
1.19325
1.12597
1.06579
1.0117
0.962747
0.918478
0.878118
0.841365
0.807591
0.77634
0.74753
0.720738
0.695616
0.672052
0.649837
0.628717
0.608552
0.589217
0.570604
0.55256
0.535021
0.517994
0.501379
0.485101
0.469211
0.453608
0.43818
0.422934
0.40785
0.392973
0.378357
0.363957
0.349801
0.335927
0.322336
0.308964
0.29569
0.282289
0.268219
0.252122
0.223964
17.359
9.66383
7.28456
5.86358
4.84543
4.08265
3.50201
3.05305
2.70089
2.41686
2.18357
1.98908
1.82368
1.68132
1.55762
1.44931
1.35391
1.26946
1.19439
1.12709
1.06688
1.01276
0.96378
0.919483
0.879097
0.84232
0.808523
0.777251
0.748422
0.721612
0.696474
0.672894
0.650663
0.629529
0.609348
0.589997
0.571367
0.553305
0.535747
0.518699
0.502061
0.485759
0.469842
0.45421
0.438751
0.42347
0.408349
0.393431
0.378773
0.364329
0.350126
0.336206
0.322568
0.30915
0.29583
0.282384
0.268269
0.252122
0.223889
17.0679
9.5362
7.20984
5.82867
4.83247
4.08016
3.50367
3.05586
2.70365
2.41922
2.18553
1.99072
1.82512
1.68263
1.55886
1.45051
1.35508
1.27061
1.19552
1.1282
1.06796
1.01382
0.964814
0.92049
0.880078
0.843276
0.809455
0.778162
0.749313
0.722485
0.697329
0.673733
0.651486