/*--------------------------------*- C++ -*----------------------------------*\
| =========                 |                                                 |
| \\      /  F ield         | OpenFOAM: The Open Source CFD Toolbox           |
|  \\    /   O peration     | Version:  3.0.1                                 |
|   \\  /    A nd           | Web:      www.OpenFOAM.org                      |
|    \\/     M anipulation  |                                                 |
\*---------------------------------------------------------------------------*/
FoamFile
{
    version     2.0;
    format      ascii;
    class       volScalarField;
    location    "2200";
    object      nut;
}
// * * * * * * * * * * * * * * * * * * * * * * * * * * * * * * * * * * * * * //

dimensions      [0 2 -1 0 0 0 0];

internalField   nonuniform List<scalar> 
14431
(
0.000251888
0.000785321
0.00131507
0.00186163
0.00254363
0.00445557
0.00545662
0.00638134
0.00730685
0.00824932
0.00920927
0.0101817
0.0111695
0.0121705
0.0131822
0.0142017
0.0152258
0.0162513
0.0172745
0.0182965
0.0193086
0.0203076
0.0212937
0.0222592
0.0232046
0.0241225
0.0250139
0.0258788
0.0267073
0.0275005
0.028259
0.0289772
0.0296536
0.0302888
0.0308807
0.0314276
0.0319277
0.0323806
0.032784
0.0331341
0.0334295
0.0336675
0.0338432
0.0339528
0.0339895
0.0339435
0.033802
0.0335493
0.0331671
0.0326302
0.0319089
0.0309696
0.0297721
0.0282685
0.0264053
0.0241373
0.021451
0.018487
0.0170407
0.000237071
0.000787482
0.00131699
0.00188874
0.00268355
0.00433158
0.00540722
0.00636109
0.00729604
0.00824184
0.00920236
0.0101743
0.0111609
0.0121602
0.0131699
0.0141872
0.0152091
0.0162322
0.0172531
0.018273
0.0192831
0.0202804
0.0212651
0.0222294
0.0231743
0.0240918
0.0249835
0.0258489
0.0266784
0.027473
0.0282333
0.0289535
0.0296322
0.0302697
0.0308641
0.0314133
0.0319155
0.0323705
0.0327754
0.0331267
0.0334228
0.0336612
0.0338366
0.0339455
0.0339812
0.0339338
0.0337907
0.0335365
0.0331532
0.0326159
0.0318951
0.030958
0.0297647
0.0282679
0.0264142
0.0241585
0.0214874
0.0185522
0.0170513
0.000225558
0.000792469
0.00132331
0.00192283
0.00278636
0.00425353
0.00536008
0.00633834
0.00728369
0.00823354
0.00919509
0.0101667
0.0111522
0.0121499
0.0131577
0.0141729
0.0151925
0.0162133
0.017232
0.0182498
0.0192579
0.0202536
0.0212369
0.0222002
0.0231444
0.0240616
0.0249535
0.0258195
0.0266499
0.027446
0.0282079
0.0289301
0.0296109
0.0302507
0.0308474
0.0313989
0.0319032
0.0323601
0.0327666
0.033119
0.0334159
0.0336545
0.0338297
0.033938
0.0339727
0.033924
0.0337795
0.0335239
0.0331394
0.0326018
0.0318816
0.0309467
0.0297576
0.0282674
0.0264231
0.0241795
0.021524
0.0186161
0.0170622
0.000216557
0.000799166
0.0013337
0.00196048
0.00286361
0.00420432
0.0053185
0.00631479
0.00727013
0.00822444
0.00918737
0.0101589
0.0111434
0.0121396
0.0131455
0.0141586
0.015176
0.0161946
0.0172111
0.0182269
0.0192331
0.0202271
0.0212091
0.0221714
0.023115
0.0240319
0.024924
0.0257905
0.0266219
0.0274193
0.0281829
0.0289069
0.0295898
0.0302319
0.0308308
0.0313845
0.0318908
0.0323495
0.0327576
0.0331111
0.0334088
0.0336476
0.0338226
0.0339304
0.0339641
0.0339142
0.0337684
0.0335114
0.033126
0.032588
0.0318685
0.0309357
0.0297507
0.0282671
0.026432
0.0242006
0.0215606
0.018679
0.0170734
0.00020945
0.000807183
0.00134772
0.00199943
0.00292328
0.00417359
0.0052833
0.00629168
0.00725582
0.00821461
0.00917918
0.0101508
0.0111344
0.0121292
0.0131333
0.0141444
0.0151596
0.0161761
0.0171905
0.0182043
0.0192086
0.0202011
0.0211818
0.0221431
0.0230861
0.0240027
0.024895
0.0257621
0.0265944
0.027393
0.0281582
0.028884
0.0295689
0.0302131
0.0308142
0.0313699
0.0318783
0.0323388
0.0327483
0.0331029
0.0334013
0.0336404
0.0338153
0.0339225
0.0339554
0.0339043
0.0337572
0.033499
0.0331127
0.0325744
0.0318557
0.0309251
0.0297441
0.0282669
0.026441
0.0242216
0.0215972
0.0187407
0.0170849
0.000203771
0.000816331
0.00136483
0.00203828
0.00297081
0.00415488
0.00525418
0.00626976
0.00724114
0.00820419
0.00917052
0.0101423
0.0111252
0.0121187
0.0131211
0.0141302
0.0151434
0.0161578
0.0171702
0.0181821
0.0191846
0.0201756
0.0211549
0.0221153
0.0230577
0.0239741
0.0248665
0.0257341
0.0265673
0.0273671
0.0281338
0.0288614
0.0295482
0.0301944
0.0307975
0.0313554
0.0318656
0.0323278
0.0327387
0.0330945
0.0333935
0.033633
0.0338077
0.0339145
0.0339465
0.0338944
0.0337461
0.0334868
0.0330996
0.0325612
0.0318432
0.0309148
0.0297378
0.028267
0.0264501
0.0242426
0.0216339
0.0188014
0.0170967
0.000199166
0.000826482
0.00138443
0.00207619
0.00300986
0.00414409
0.00523039
0.00624944
0.00722642
0.00819329
0.00916139
0.0101335
0.0111158
0.012108
0.0131088
0.0141161
0.0151274
0.0161397
0.0171501
0.0181601
0.019161
0.0201504
0.0211286
0.022088
0.0230298
0.023946
0.0248385
0.0257066
0.0265406
0.0273416
0.0281097
0.028839
0.0295276
0.0301758
0.0307809
0.0313407
0.0318528
0.0323166
0.0327289
0.0330857
0.0333855
0.0336252
0.0337999
0.0339062
0.0339375
0.0338844
0.033735
0.0334747
0.0330868
0.0325482
0.031831
0.0309047
0.0297318
0.0282672
0.0264592
0.0242636
0.0216705
0.018861
0.0171087
0.000195358
0.000837558
0.00140593
0.00211264
0.00304287
0.00413857
0.00521108
0.00623085
0.00721191
0.00818205
0.00915184
0.0101244
0.0111061
0.0120973
0.0130966
0.0141021
0.0151115
0.0161219
0.0171304
0.0181386
0.0191378
0.0201258
0.0211027
0.0220613
0.0230025
0.0239184
0.0248111
0.0256796
0.0265144
0.0273165
0.028086
0.0288169
0.0295073
0.0301573
0.0307643
0.0313259
0.0318398
0.0323052
0.0327188
0.0330766
0.0333771
0.0336172
0.0337918
0.0338978
0.0339284
0.0338744
0.033724
0.0334627
0.0330741
0.0325354
0.0318191
0.030895
0.029726
0.0282676
0.0264684
0.0242846
0.0217071
0.0189196
0.0171211
0.000192117
0.000849525
0.00142871
0.00214733
0.00307141
0.00413654
0.00519543
0.00621398
0.00719777
0.00817059
0.00914193
0.0101149
0.0110962
0.0120863
0.0130842
0.0140881
0.0150957
0.0161042
0.0171109
0.0181174
0.0191149
0.0201016
0.0210774
0.022035
0.0229757
0.0238914
0.0247841
0.0256531
0.0264887
0.0272918
0.0280626
0.028795
0.0294871
0.0301389
0.0307477
0.0313111
0.0318266
0.0322936
0.0327085
0.0330673
0.0333685
0.0336089
0.0337835
0.0338891
0.0339191
0.0338643
0.033713
0.0334508
0.0330617
0.032523
0.0318075
0.0308856
0.0297206
0.0282682
0.0264777
0.0243056
0.0217435
0.018977
0.0171336
0.000189573
0.000862195
0.00145211
0.00217998
0.0030965
0.0041368
0.00518273
0.00619873
0.00718411
0.00815905
0.00913173
0.0101051
0.0110861
0.0120753
0.0130719
0.0140742
0.01508
0.0160868
0.0170917
0.0180965
0.0190926
0.0200779
0.0210525
0.0220094
0.0229495
0.0238649
0.0247578
0.0256272
0.0264634
0.0272675
0.0280395
0.0287734
0.0294671
0.0301206
0.0307312
0.0312963
0.0318134
0.0322818
0.032698
0.0330578
0.0333596
0.0336004
0.033775
0.0338803
0.0339097
0.0338542
0.0337021
0.0334391
0.0330495
0.0325108
0.0317963
0.0308766
0.0297154
0.028269
0.026487
0.0243264
0.0217797
0.0190334
0.0171464
3.05068e-05
3.23398e-05
3.41346e-05
3.57167e-05
3.70714e-05
3.82387e-05
3.92625e-05
4.01747e-05
4.09929e-05
4.17163e-05
4.2248e-05
4.25642e-05
4.26362e-05
4.24275e-05
4.1894e-05
4.09853e-05
3.96558e-05
3.79668e-05
3.73765e-05
5.57768e-05
3.81357e-05
5.35832e-05
6.68748e-05
7.68299e-05
8.35056e-05
8.72573e-05
8.8539e-05
8.78164e-05
8.55174e-05
8.19009e-05
7.61068e-05
6.94873e-05
6.30494e-05
5.74239e-05
5.28662e-05
4.93798e-05
4.68916e-05
4.59081e-05
5.02009e-05
0.000106122
4.24976e-05
5.98177e-05
7.81525e-05
9.34776e-05
0.000104888
0.000112569
0.000117098
0.000119117
0.000119189
0.000117705
0.000114218
0.000108637
0.000101063
9.20698e-05
8.26675e-05
7.39741e-05
6.69066e-05
6.2203e-05
6.27644e-05
0.000142519
4.56161e-05
6.44838e-05
8.77845e-05
0.000107674
0.00012228
0.00013192
0.000137569
0.000140239
0.00014076
0.000139714
0.000137177
0.000133137
0.000127347
0.00011953
0.000109782
9.88964e-05
8.81886e-05
7.79629e-05
7.41806e-05
0.000172924
4.79275e-05
6.94637e-05
9.84741e-05
0.000122535
0.000139244
0.000149571
0.000155145
0.00015744
0.000157565
0.000156233
0.000153591
0.00014976
0.000144673
0.000137968
0.000129191
0.000118278
0.000105789
9.02936e-05
8.5218e-05
0.000201092
4.96634e-05
7.51801e-05
0.000110193
0.000137356
0.000154759
0.000164556
0.000169127
0.000170391
0.000169716
0.000167907
0.000165035
0.000161151
0.000156285
0.000150166
0.000142233
0.000131905
0.000118701
9.87191e-05
9.67817e-05
0.000229339
5.09645e-05
8.17929e-05
0.000122387
0.00015108
0.000167869
0.00017626
0.000179211
0.000179011
0.000177291
0.000174946
0.000171945
0.000168147
0.000163529
0.000157852
0.00015058
0.000140908
0.000127372
0.000103788
0.00010985
0.000259054
5.1926e-05
8.92853e-05
0.00013427
0.000162929
0.000178316
0.000184902
0.000185911
0.000183954
0.000181
0.000178092
0.00017509
0.00017158
0.000167368
0.000162173
0.000155498
0.000146438
0.000132563
0.000106519
0.0001255
0.000291176
5.26168e-05
9.74561e-05
0.000145067
0.000172624
0.000186446
0.000191219
0.000190154
0.000186221
0.000181915
0.000178488
0.000175621
0.000172536
0.000168816
0.00016413
0.000158014
0.000149477
0.000134997
0.000108264
0.00014496
0.000326507
5.30894e-05
0.000105906
0.000154213
0.0001803
0.00019285
0.000196033
0.000192881
0.000186843
0.000181249
0.000177632
0.000175115
0.00017241
0.000169029
0.000164727
0.000159071
0.000150876
0.000135299
0.000110763
0.000169678
0.000365907
5.33862e-05
0.000114045
0.00016144
0.000186273
0.000198073
0.000200039
0.000194938
0.000186764
0.000180197
0.000177393
0.000175647
0.000172831
0.000169235
0.00016499
0.000159577
0.000151356
0.000134061
0.000116299
0.000201498
0.000411086
5.35435e-05
0.000121147
0.000166712
0.000190823
0.000202467
0.000203775
0.000197151
0.000186897
0.000179335
0.000178667
0.000178766
0.000174968
0.000170449
0.000165883
0.000160366
0.000151417
0.00013213
0.000128042
0.000242507
0.00046311
5.35959e-05
0.000126442
0.00017008
0.000194057
0.000206164
0.000207664
0.000200492
0.00018863
0.000178728
0.000177395
0.000180266
0.000177523
0.000172774
0.000167861
0.000161817
0.00015102
0.000131474
0.000150532
0.000294918
0.00052094
5.35761e-05
0.000129631
0.000171824
0.000196426
0.000210129
0.000213488
0.000207795
0.00019606
0.000183638
0.000177466
0.000178675
0.000176678
0.000172703
0.000167625
0.000160315
0.000148044
0.000137139
0.000190446
0.000361287
0.00058137
5.34799e-05
0.000131177
0.000171918
0.000197745
0.000214301
0.000221571
0.000220178
0.00021191
0.000199961
0.000188805
0.000181874
0.000174778
0.000168473
0.000162016
0.000153929
0.000146463
0.00016184
0.000253624
0.000435142
0.000646598
5.32818e-05
0.000130513
0.000169533
0.000196856
0.000217234
0.000230287
0.000236118
0.000235526
0.000229926
0.000221116
0.000210638
0.000198405
0.000188109
0.000180896
0.000178246
0.000187747
0.000231508
0.000341652
0.000518811
0.000720143
5.29307e-05
0.000126758
0.000163251
0.00019156
0.00021575
0.000235293
0.000249956
0.000259921
0.000265636
0.000267588
0.000266059
0.000260842
0.000255975
0.000255409
0.00026298
0.000286809
0.000342974
0.000451972
0.000616306
0.000806809
5.2341e-05
0.000118672
0.000150983
0.000178441
0.0002046
0.000228994
0.000251213
0.000271073
0.000288573
0.000303782
0.000316723
0.000327242
0.000336194
0.000348656
0.000369172
0.00040452
0.000466279
0.000569779
0.000721989
0.00090425
5.13983e-05
0.000104645
0.000130132
0.00015322
0.00017701
0.000201341
0.000225885
0.000250353
0.00027459
0.000298573
0.00032238
0.000346106
0.000369712
0.000394929
0.000427378
0.000472742
0.000539639
0.000640209
0.000784912
0.000966329
5.00053e-05
8.29611e-05
9.86531e-05
0.000112945
0.000128185
0.000144628
0.000162304
0.000181176
0.000201223
0.00022251
0.000245214
0.000269615
0.000295999
0.000324206
0.000356409
0.000398305
0.000455853
0.000538113
0.000657074
0.000821985
4.58763e-05
5.39675e-05
6.00729e-05
6.49369e-05
6.91691e-05
7.30845e-05
7.67923e-05
8.03552e-05
8.38743e-05
8.74421e-05
9.11506e-05
9.51011e-05
9.94189e-05
0.000104276
0.000109866
0.000116443
0.000124437
0.000134575
0.000148355
0.000171053
0.000224369
0.000876015
0.00147475
0.00220941
0.00311809
0.00413844
0.00517264
0.00618534
0.00717138
0.00814783
0.00912161
0.0100953
0.011076
0.0120644
0.0130598
0.0140607
0.015065
0.0160701
0.0170734
0.0180766
0.0190712
0.0200552
0.0210289
0.0219849
0.0229245
0.0238397
0.0247326
0.0256024
0.0264393
0.0272443
0.0280175
0.0287527
0.0294478
0.0301029
0.0307151
0.0312818
0.0318004
0.0322702
0.0326875
0.0330483
0.0333507
0.0335918
0.0337665
0.0338716
0.0339006
0.0338444
0.0336915
0.0334279
0.0330378
0.0324993
0.0317857
0.0308681
0.0297106
0.02827
0.0264962
0.0243468
0.0218147
0.019087
0.017159
0.000262737
0.000890711
0.0014966
0.00223671
0.00313749
0.00414095
0.00516433
0.00617325
0.00715924
0.00813674
0.0091114
0.0100854
0.0110659
0.0120535
0.0130478
0.0140474
0.0150502
0.0160538
0.0170555
0.0180573
0.0190506
0.0200334
0.021006
0.0219613
0.0229004
0.0238154
0.0247083
0.0255784
0.0264159
0.0272218
0.027996
0.0287324
0.029429
0.0300855
0.0306992
0.0312674
0.0317875
0.0322585
0.032677
0.0330386
0.0333416
0.0335831
0.0337579
0.0338628
0.0338913
0.0338346
0.033681
0.0334169
0.0330265
0.0324881
0.0317755
0.03086
0.0297062
0.0282712
0.0265053
0.0243667
0.021849
0.0191389
0.0171717
0.000302951
0.000906993
0.00151773
0.00226212
0.00315519
0.00414405
0.00515739
0.00616221
0.0071476
0.00812573
0.00910106
0.0100753
0.0110555
0.0120425
0.0130358
0.0140341
0.0150355
0.0160376
0.0170379
0.0180382
0.0190302
0.0200119
0.0209836
0.0219381
0.0228767
0.0237915
0.0246845
0.0255549
0.0263929
0.0271996
0.0279748
0.0287124
0.0294103
0.0300682
0.0306833
0.031253
0.0317744
0.0322466
0.0326661
0.0330286
0.0333323
0.0335741
0.033749
0.0338537
0.0338819
0.0338247
0.0336706
0.0334059
0.0330153
0.0324772
0.0317656
0.0308522
0.029702
0.0282725
0.0265145
0.0243866
0.0218831
0.01919
0.0171845
0.000344198
0.000925396
0.00153883
0.00228594
0.00317156
0.00414757
0.0051516
0.00615213
0.00713647
0.00811486
0.00909065
0.0100651
0.011045
0.0120313
0.0130237
0.0140208
0.0150209
0.0160216
0.0170205
0.0180195
0.0190102
0.0199907
0.0209615
0.0219153
0.0228535
0.023768
0.024661
0.0255317
0.0263703
0.0271777
0.0279539
0.0286926
0.0293917
0.0300509
0.0306674
0.0312384
0.0317611
0.0322345
0.0326551
0.0330184
0.0333227
0.0335649
0.0337398
0.0338445
0.0338724
0.0338147
0.0336601
0.033395
0.0330043
0.0324664
0.0317558
0.0308446
0.029698
0.028274
0.0265238
0.0244065
0.0219171
0.0192404
0.0171975
0.000386117
0.000946275
0.00156057
0.00230859
0.00318697
0.0041515
0.00514683
0.00614296
0.00712588
0.0081042
0.00908023
0.0100547
0.0110344
0.0120201
0.0130115
0.0140075
0.0150063
0.0160057
0.0170033
0.018001
0.0189905
0.01997
0.0209398
0.021893
0.0228306
0.023745
0.024638
0.0255089
0.026348
0.0271561
0.0279331
0.0286729
0.0293732
0.0300337
0.0306515
0.0312238
0.0317477
0.0322223
0.0326438
0.0330079
0.0333128
0.0335554
0.0337305
0.0338351
0.0338627
0.0338047
0.0336497
0.0333842
0.0329933
0.0324559
0.0317464
0.0308373
0.0296942
0.0282756
0.0265333
0.0244265
0.021951
0.01929
0.0172108
0.000428572
0.00096983
0.0015835
0.00233057
0.0032018
0.00415588
0.00514304
0.00613468
0.00711587
0.0080938
0.00906986
0.0100443
0.0110236
0.0120087
0.0129993
0.0139942
0.0149918
0.01599
0.0169863
0.0179827
0.0189711
0.0199496
0.0209186
0.021871
0.0228082
0.0237223
0.0246153
0.0254865
0.026326
0.0271348
0.0279127
0.0286534
0.0293548
0.0300165
0.0306356
0.031209
0.0317341
0.0322098
0.0326323
0.0329972
0.0333026
0.0335456
0.0337209
0.0338255
0.0338529
0.0337945
0.0336392
0.0333735
0.0329825
0.0324455
0.0317371
0.0308302
0.0296907
0.0282775
0.0265428
0.0244464
0.0219847
0.019339
0.0172243
0.000471604
0.000996208
0.00160805
0.00235235
0.00321639
0.0041608
0.0051402
0.0061273
0.00710647
0.00808373
0.00905961
0.0100339
0.0110129
0.0119973
0.012987
0.013981
0.0149775
0.0159744
0.0169695
0.0179647
0.018952
0.0199295
0.0208977
0.0218495
0.0227862
0.0237001
0.0245931
0.0254645
0.0263044
0.0271138
0.0278924
0.0286341
0.0293366
0.0299994
0.0306196
0.0311942
0.0317204
0.0321972
0.0326206
0.0329862
0.0332923
0.0335356
0.0337111
0.0338156
0.033843
0.0337843
0.0336287
0.0333628
0.0329719
0.0324353
0.0317281
0.0308234
0.0296874
0.0282795
0.0265524
0.0244664
0.0220183
0.0193872
0.0172379
0.000515459
0.00102586
0.00163399
0.00237432
0.0032311
0.00416639
0.00513834
0.00612083
0.00709773
0.00807404
0.00904954
0.0100235
0.0110021
0.0119859
0.0129748
0.0139677
0.0149631
0.015959
0.0169529
0.017947
0.0189332
0.0199098
0.0208771
0.0218284
0.0227646
0.0236783
0.0245712
0.0254428
0.0262831
0.027093
0.0278724
0.028615
0.0293184
0.0299823
0.0306036
0.0311794
0.0317066
0.0321843
0.0326086
0.032975
0.0332816
0.0335253
0.033701
0.0338056
0.0338328
0.033774
0.0336181
0.0333521
0.0329613
0.0324253
0.0317193
0.0308167
0.0296843
0.0282817
0.0265621
0.0244864
0.0220517
0.0194347
0.0172518
0.000561087
0.00105838
0.00166124
0.00239682
0.00324621
0.00417278
0.0051375
0.00611531
0.0070897
0.0080648
0.00903971
0.0100133
0.0109913
0.0119745
0.0129626
0.0139546
0.0149489
0.0159437
0.0169364
0.0179295
0.0189147
0.0198904
0.020857
0.0218076
0.0227434
0.0236568
0.0245498
0.0254215
0.0262621
0.0270726
0.0278527
0.028596
0.0293004
0.0299653
0.0305876
0.0311644
0.0316927
0.0321713
0.0325964
0.0329635
0.0332707
0.0335148
0.0336907
0.0337954
0.0338226
0.0337636
0.0336076
0.0333415
0.0329509
0.0324154
0.0317107
0.0308103
0.0296814
0.0282841
0.026572
0.0245064
0.0220849
0.0194816
0.0172659
0.000609414
0.0010931
0.00169006
0.00242017
0.00326201
0.0041801
0.00513773
0.00611076
0.00708241
0.00805605
0.00903016
0.0100032
0.0109806
0.0119631
0.0129504
0.0139415
0.0149348
0.0159285
0.0169202
0.0179122
0.0188965
0.0198713
0.0208372
0.0217872
0.0227226
0.0236358
0.0245286
0.0254005
0.0262414
0.0270524
0.0278331
0.0285772
0.0292824
0.0299482
0.0305716
0.0311494
0.0316786
0.0321581
0.0325841
0.0329518
0.0332596
0.0335041
0.0336803
0.0337851
0.0338122
0.0337531
0.033597
0.0333309
0.0329405
0.0324057
0.0317023
0.0308042
0.0296788
0.0282867
0.0265819
0.0245264
0.022118
0.0195278
0.0172801
0.000659959
0.00113024
0.00172067
0.00244463
0.00327871
0.00418846
0.00513906
0.00610719
0.00707588
0.00804782
0.00902094
0.00999321
0.01097
0.0119518
0.0129383
0.0139284
0.0149208
0.0159135
0.0169042
0.0178952
0.0188785
0.0198525
0.0208177
0.0217671
0.0227022
0.0236151
0.0245079
0.0253798
0.0262211
0.0270324
0.0278138
0.0285586
0.0292646
0.0299313
0.0305555
0.0311342
0.0316644
0.0321448
0.0325715
0.0329399
0.0332482
0.0334932
0.0336696
0.0337745
0.0338017
0.0337426
0.0335864
0.0333203
0.0329303
0.0323961
0.031694
0.0307982
0.0296764
0.0282894
0.026592
0.0245464
0.0221509
0.0195735
0.0172946
0.000712346
0.00117004
0.00175332
0.00247044
0.00329649
0.00419791
0.0051415
0.00610461
0.00707012
0.00804013
0.00901206
0.00998349
0.0109595
0.0119406
0.0129262
0.0139155
0.0149069
0.0158986
0.0168883
0.0178784
0.0188609
0.019834
0.0207985
0.0217474
0.0226821
0.0235947
0.0244875
0.0253595
0.026201
0.0270128
0.0277946
0.0285401
0.0292469
0.0299144
0.0305395
0.0311191
0.0316501
0.0321313
0.0325587
0.0329278
0.0332366
0.033482
0.0336587
0.0337638
0.033791
0.0337319
0.0335758
0.0333098
0.0329201
0.0323867
0.031686
0.0307925
0.0296741
0.0282923
0.0266021
0.0245664
0.0221836
0.0196185
0.0173092
0.000767096
0.0012128
0.00178826
0.00249779
0.00331544
0.00420849
0.00514502
0.00610297
0.00706511
0.00803299
0.00900354
0.00997399
0.0109492
0.0119294
0.0129142
0.0139026
0.0148931
0.0158839
0.0168727
0.0178619
0.0188434
0.0198159
0.0207797
0.0217281
0.0226623
0.0235747
0.0244674
0.0253395
0.0261812
0.0269933
0.0277757
0.0285218
0.0292292
0.0298975
0.0305234
0.0311038
0.0316356
0.0321176
0.0325458
0.0329155
0.0332248
0.0334706
0.0336476
0.0337528
0.0337802
0.0337212
0.0335651
0.0332994
0.03291
0.0323775
0.0316782
0.0307869
0.0296721
0.0282954
0.0266124
0.0245865
0.0222161
0.0196629
0.017324
0.000824977
0.00125894
0.00182572
0.00252678
0.0033356
0.00422015
0.00514955
0.00610223
0.00706081
0.00802636
0.00899539
0.00996473
0.010939
0.0119184
0.0129023
0.0138898
0.0148794
0.0158693
0.0168572
0.0178455
0.0188263
0.019798
0.0207612
0.021709
0.0226429
0.0235551
0.0244476
0.0253198
0.0261617
0.0269741
0.0277569
0.0285036
0.0292117
0.0298807
0.0305073
0.0310885
0.0316211
0.0321038
0.0325327
0.032903
0.0332128
0.033459
0.0336363
0.0337418
0.0337692
0.0337103
0.0335544
0.0332889
0.0329
0.0323683
0.0316705
0.0307816
0.0296702
0.0282987
0.0266228
0.0246065
0.0222485
0.0197067
0.017339
0.00088729
0.00130904
0.00186588
0.0025574
0.00335686
0.00423275
0.00515496
0.00610227
0.00705715
0.00802022
0.00898758
0.0099557
0.010929
0.0119075
0.0128905
0.0138772
0.0148659
0.0158549
0.0168419
0.0178294
0.0188094
0.0197804
0.020743
0.0216903
0.0226238
0.0235357
0.0244282
0.0253004
0.0261424
0.0269552
0.0277384
0.0284855
0.0291942
0.0298639
0.0304912
0.0310731
0.0316064
0.0320899
0.0325194
0.0328902
0.0332006
0.0334472
0.0336248
0.0337305
0.0337582
0.0336994
0.0335437
0.0332785
0.0328901
0.0323594
0.031663
0.0307764
0.0296686
0.0283021
0.0266333
0.0246265
0.0222806
0.01975
0.0173542
0.000956356
0.00136383
0.00190876
0.00258945
0.003379
0.00424609
0.00516109
0.00610296
0.00705405
0.00801453
0.00898009
0.00994692
0.0109192
0.0118967
0.0128789
0.0138646
0.0148525
0.0158406
0.0168268
0.0178135
0.0187927
0.019763
0.020725
0.0216719
0.022605
0.0235167
0.024409
0.0252812
0.0261234
0.0269364
0.02772
0.0284676
0.0291768
0.0298471
0.0304751
0.0310577
0.0315917
0.0320758
0.0325059
0.0328773
0.0331882
0.0334351
0.0336131
0.0337191
0.033747
0.0336884
0.0335329
0.0332681
0.0328803
0.0323505
0.0316557
0.0307715
0.0296671
0.0283056
0.0266438
0.0246466
0.0223126
0.0197927
0.0173695
0.00103551
0.00142391
0.00195404
0.00262245
0.00340161
0.00425985
0.00516769
0.00610417
0.00705141
0.00800921
0.00897291
0.00993835
0.0109095
0.0118861
0.0128673
0.0138522
0.0148392
0.0158265
0.0168119
0.0177978
0.0187763
0.019746
0.0207074
0.0216538
0.0225865
0.023498
0.0243902
0.0252624
0.0261047
0.0269179
0.0277018
0.0284499
0.0291596
0.0298304
0.030459
0.0310422
0.0315768
0.0320615
0.0324922
0.0328642
0.0331755
0.0334229
0.0336012
0.0337075
0.0337356
0.0336773
0.0335221
0.0332577
0.0328706
0.0323417
0.0316485
0.0307667
0.0296659
0.0283094
0.0266545
0.0246666
0.0223444
0.0198349
0.017385
0.00112565
0.0014884
0.00200051
0.0026555
0.0034241
0.00427366
0.00517454
0.00610572
0.00704915
0.00800423
0.008966
0.00993001
0.0109
0.0118756
0.0128559
0.0138399
0.0148261
0.0158125
0.0167971
0.0177823
0.0187601
0.0197291
0.02069
0.021636
0.0225684
0.0234796
0.0243716
0.0252438
0.0260862
0.0268996
0.0276838
0.0284322
0.0291424
0.0298137
0.0304429
0.0310267
0.0315619
0.0320472
0.0324785
0.032851
0.0331627
0.0334105
0.0335892
0.0336958
0.0337242
0.0336661
0.0335113
0.0332473
0.0328609
0.0323331
0.0316415
0.0307621
0.0296648
0.0283133
0.0266653
0.0246866
0.022376
0.0198766
0.0174007
0.00120848
0.00154977
0.00204483
0.00268706
0.00344574
0.00428713
0.0051814
0.00610747
0.00704716
0.00799953
0.00895934
0.00992187
0.0108907
0.0118652
0.0128446
0.0138278
0.0148131
0.0157987
0.0167825
0.017767
0.0187441
0.0197126
0.0206729
0.0216184
0.0225505
0.0234614
0.0243533
0.0252254
0.0260679
0.0268815
0.0276659
0.0284147
0.0291253
0.0297971
0.0304268
0.0310111
0.0315469
0.0320327
0.0324645
0.0328375
0.0331497
0.033398
0.033577
0.0336839
0.0337126
0.0336549
0.0335004
0.0332369
0.0328512
0.0323246
0.0316346
0.0307577
0.0296639
0.0283173
0.0266762
0.0247066
0.0224073
0.0199178
0.0174165
0.00120146
0.00157911
0.00207923
0.0027148
0.0034657
0.00429992
0.00518811
0.00610935
0.0070454
0.00799509
0.00895292
0.00991393
0.0108815
0.011855
0.0128335
0.0138158
0.0148002
0.0157851
0.0167682
0.0177519
0.0187284
0.0196962
0.0206561
0.0216012
0.0225328
0.0234435
0.0243353
0.0252073
0.0260498
0.0268635
0.0276482
0.0283973
0.0291082
0.0297804
0.0304106
0.0309955
0.0315317
0.0320181
0.0324504
0.0328239
0.0331366
0.0333852
0.0335646
0.0336719
0.0337009
0.0336436
0.0334895
0.0332266
0.0328417
0.0323162
0.0316279
0.0307534
0.0296631
0.0283215
0.0266871
0.0247267
0.0224385
0.0199584
0.0174325
0.000843978
0.00151175
0.00208989
0.00273591
0.00348336
0.00431185
0.0051946
0.0061113
0.00704385
0.00799089
0.00894673
0.00990621
0.0108726
0.011845
0.0128225
0.0138039
0.0147875
0.0157716
0.0167539
0.017737
0.0187129
0.0196801
0.0206395
0.0215841
0.0225155
0.0234259
0.0243175
0.0251895
0.026032
0.0268458
0.0276307
0.02838
0.0290913
0.0297639
0.0303945
0.0309798
0.0315165
0.0320034
0.0324362
0.0328101
0.0331233
0.0333723
0.0335521
0.0336597
0.0336891
0.0336321
0.0334785
0.0332162
0.0328322
0.0323079
0.0316213
0.0307493
0.0296626
0.0283258
0.0266982
0.0247467
0.0224695
0.0199986
0.0174486
0.000281306
0.00131763
0.00207284
0.00274927
0.00349853
0.00432297
0.00520091
0.00611337
0.00704253
0.00798695
0.00894079
0.00989871
0.0108638
0.0118351
0.0128117
0.0137922
0.014775
0.0157583
0.0167399
0.0177223
0.0186976
0.0196643
0.0206231
0.0215674
0.0224984
0.0234086
0.0243
0.0251718
0.0260144
0.0268282
0.0276132
0.0283628
0.0290744
0.0297473
0.0303783
0.030964
0.0315012
0.0319885
0.0324218
0.0327962
0.0331098
0.0333592
0.0335394
0.0336474
0.0336772
0.0336206
0.0334675
0.0332059
0.0328227
0.0322996
0.0316149
0.0307453
0.0296621
0.0283303
0.0267094
0.0247667
0.0225004
0.0200384
0.0174649
0.00026676
0.00123339
0.00204947
0.00275702
0.00351156
0.00433341
0.00520713
0.00611559
0.00704146
0.00798328
0.00893511
0.00989144
0.0108552
0.0118254
0.012801
0.0137806
0.0147626
0.0157451
0.0167261
0.0177078
0.0186825
0.0196486
0.020607
0.0215508
0.0224815
0.0233914
0.0242826
0.0251544
0.0259969
0.0268108
0.027596
0.0283457
0.0290575
0.0297308
0.0303621
0.0309483
0.0314859
0.0319736
0.0324073
0.0327821
0.0330961
0.033346
0.0335265
0.0336349
0.0336651
0.0336091
0.0334565
0.0331955
0.0328133
0.0322915
0.0316085
0.0307416
0.0296619
0.0283349
0.0267206
0.0247867
0.022531
0.0200778
0.0174814
0.00025482
0.00118337
0.00202626
0.00276098
0.00352272
0.00434324
0.00521331
0.006118
0.00704067
0.00797991
0.0089297
0.00988442
0.0108469
0.011816
0.0127905
0.0137692
0.0147504
0.0157322
0.0167124
0.0176935
0.0186676
0.0196332
0.0205911
0.0215345
0.0224649
0.0233745
0.0242656
0.0251372
0.0259797
0.0267936
0.0275788
0.0283288
0.0290408
0.0297143
0.030346
0.0309324
0.0314704
0.0319586
0.0323927
0.0327679
0.0330823
0.0333326
0.0335135
0.0336223
0.033653
0.0335974
0.0334454
0.0331852
0.0328039
0.0322835
0.0316023
0.0307379
0.0296618
0.0283397
0.0267319
0.0248066
0.0225615
0.0201166
0.017498
0.000245055
0.00115115
0.00200536
0.00276233
0.00353214
0.00435244
0.00521945
0.00612063
0.00704018
0.00797686
0.0089246
0.00987767
0.0108388
0.0118067
0.0127802
0.013758
0.0147384
0.0157194
0.0166989
0.0176793
0.0186529
0.019618
0.0205755
0.0215185
0.0224485
0.0233579
0.0242487
0.0251202
0.0259626
0.0267765
0.0275618
0.0283119
0.0290241
0.0296979
0.0303298
0.0309166
0.0314549
0.0319434
0.0323779
0.0327535
0.0330683
0.033319
0.0335004
0.0336096
0.0336407
0.0335857
0.0334343
0.0331749
0.0327946
0.0322755
0.0315963
0.0307344
0.0296618
0.0283445
0.0267434
0.0248266
0.0225918
0.0201551
0.0175147
0.000237068
0.00112952
0.00198757
0.00276201
0.00354
0.00436097
0.0052255
0.00612345
0.00703999
0.00797412
0.00891979
0.00987119
0.0108309
0.0117976
0.0127701
0.013747
0.0147265
0.0157068
0.0166856
0.0176654
0.0186384
0.019603
0.02056
0.0215026
0.0224323
0.0233414
0.024232
0.0251034
0.0259457
0.0267596
0.027545
0.0282951
0.0290075
0.0296814
0.0303136
0.0309007
0.0314393
0.0319282
0.032363
0.0327391
0.0330542
0.0333053
0.0334871
0.0335968
0.0336284
0.0335739
0.0334232
0.0331645
0.0327853
0.0322676
0.0315903
0.0307311
0.029662
0.0283496
0.0267548
0.0248466
0.0226218
0.0201931
0.0175316
0.000230504
0.00111484
0.0019731
0.00276078
0.0035465
0.0043688
0.00523138
0.0061264
0.00704007
0.00797169
0.00891529
0.00986498
0.0108233
0.0117888
0.0127603
0.0137362
0.0147149
0.0156943
0.0166725
0.0176517
0.0186241
0.0195882
0.0205447
0.021487
0.0224163
0.0233252
0.0242156
0.0250868
0.025929
0.0267429
0.0275282
0.0282784
0.0289909
0.029665
0.0302974
0.0308847
0.0314237
0.0319129
0.0323481
0.0327245
0.03304
0.0332915
0.0334737
0.0335839
0.033616
0.033562
0.033412
0.0331542
0.0327761
0.0322598
0.0315844
0.0307278
0.0296623
0.0283547
0.0267664
0.0248665
0.0226517
0.0202308
0.0175486
0.000225068
0.0011049
0.00196177
0.00275924
0.00355191
0.00437591
0.00523704
0.00612944
0.00704038
0.00796956
0.00891108
0.00985905
0.0108159
0.0117802
0.0127506
0.0137255
0.0147034
0.0156821
0.0166596
0.0176381
0.01861
0.0195736
0.0205297
0.0214715
0.0224005
0.0233091
0.0241993
0.0250703
0.0259124
0.0267262
0.0275116
0.0282618
0.0289744
0.0296486
0.0302812
0.0308688
0.031408
0.0318975
0.032333
0.0327097
0.0330257
0.0332776
0.0334602
0.0335708
0.0336034
0.0335501
0.0334008
0.0331439
0.0327669
0.0322521
0.0315787
0.0307247
0.0296628
0.0283599
0.026778
0.0248864
0.0226814
0.020268
0.0175658
0.000220536
0.00109827
0.00195324
0.00275778
0.00355646
0.00438234
0.00524242
0.00613251
0.00704089
0.00796768
0.00890715
0.00985339
0.0108088
0.0117718
0.0127411
0.0137151
0.0146921
0.01567
0.0166468
0.0176247
0.018596
0.0195592
0.0205148
0.0214563
0.022385
0.0232933
0.0241832
0.025054
0.025896
0.0267097
0.027495
0.0282453
0.0289579
0.0296323
0.030265
0.0308528
0.0313922
0.031882
0.0323178
0.0326949
0.0330112
0.0332635
0.0334465
0.0335576
0.0335908
0.0335381
0.0333895
0.0331335
0.0327577
0.0322445
0.0315731
0.0307218
0.0296634
0.0283653
0.0267898
0.0249063
0.0227109
0.0203048
0.0175831
0.000216729
0.00109397
0.0019471
0.00275668
0.00356039
0.00438813
0.00524747
0.00613552
0.00704152
0.00796603
0.00890347
0.00984798
0.0108019
0.0117636
0.0127318
0.0137048
0.0146809
0.0156581
0.0166342
0.0176115
0.0185823
0.0195449
0.0205002
0.0214412
0.0223696
0.0232776
0.0241673
0.0250379
0.0258797
0.0266933
0.0274786
0.0282288
0.0289415
0.029616
0.0302488
0.0308367
0.0313764
0.0318664
0.0323025
0.0326799
0.0329966
0.0332493
0.0334328
0.0335444
0.0335781
0.033526
0.0333782
0.0331232
0.0327486
0.0322369
0.0315675
0.0307189
0.0296641
0.0283708
0.0268015
0.0249261
0.0227402
0.0203413
0.0176005
0.000213509
0.00109135
0.001943
0.00275609
0.00356388
0.00439337
0.00525218
0.00613845
0.00704224
0.00796455
0.00890002
0.0098428
0.0107952
0.0117557
0.0127227
0.0136948
0.01467
0.0156464
0.0166218
0.0175985
0.0185687
0.0195309
0.0204857
0.0214264
0.0223544
0.0232621
0.0241515
0.025022
0.0258636
0.0266771