/*--------------------------------*- C++ -*----------------------------------*\
| =========                 |                                                 |
| \\      /  F ield         | OpenFOAM: The Open Source CFD Toolbox           |
|  \\    /   O peration     | Version:  3.0.1                                 |
|   \\  /    A nd           | Web:      www.OpenFOAM.org                      |
|    \\/     M anipulation  |                                                 |
\*---------------------------------------------------------------------------*/
FoamFile
{
    version     2.0;
    format      ascii;
    class       surfaceScalarField;
    location    "2200";
    object      phi;
}
// * * * * * * * * * * * * * * * * * * * * * * * * * * * * * * * * * * * * * //

dimensions      [0 3 -1 0 0 0 0];

internalField   nonuniform List<scalar> 
28494
(
-2.17047e-06
0.000164364
-9.42771e-07
0.000254425
-4.0674e-07
0.000301903
-1.45112e-07
0.000331309
-4.68553e-07
0.000357394
-2.20073e-07
0.000380823
-2.15075e-07
0.000399106
-1.95598e-07
0.00041615
-1.74866e-07
0.000427947
-1.54012e-07
0.000447459
-1.32982e-07
0.000457422
-1.13124e-07
0.000471021
-9.44979e-08
0.000483982
-7.73164e-08
0.000496368
-6.17568e-08
0.000508243
-4.7964e-08
0.00051967
-3.60464e-08
0.000530709
-2.60711e-08
0.000541423
-1.80045e-08
0.000551868
-1.20564e-08
0.000567187
-7.84317e-09
0.000572219
-5.58805e-09
0.000587355
-5.01192e-09
0.000597342
-5.98875e-09
0.000607308
-8.41611e-09
0.000622594
-1.1974e-08
0.000627383
-1.66019e-08
0.000648277
-2.19869e-08
0.000658697
-2.79087e-08
0.000669263
-3.4167e-08
0.000685497
-4.05291e-08
0.00070204
-4.67565e-08
0.000713312
-5.26585e-08
0.000730417
-5.80482e-08
0.000747859
-6.27489e-08
0.000765628
-6.66068e-08
0.000783723
-6.94926e-08
0.000802134
-7.1326e-08
0.000826716
-7.201e-08
0.000845787
-7.15039e-08
0.000865096
-6.98237e-08
0.000890648
-6.70023e-08
0.000916527
-6.30143e-08
0.000936531
-5.80374e-08
0.000975202
-5.20938e-08
0.00101435
-4.53427e-08
0.00106022
-3.80012e-08
0.00111294
-3.03037e-08
0.00116623
-2.2536e-08
0.00122645
-1.52082e-08
0.00130672
-8.63715e-09
0.00138789
-3.55717e-09
0.00148969
-2.37206e-10
0.00160604
1.6247e-10
0.00176412
-1.61625e-09
0.00196545
-8.31107e-09
0.00225279
-1.53242e-08
0.00269942
-3.1415e-08
0.00356007
0.00881955
-2.53315e-06
0.000166897
-1.61891e-06
0.000253511
-8.82036e-07
0.000301166
-5.90624e-07
0.000331017
-7.52044e-07
0.000357555
-5.1978e-07
0.000380591
-4.62884e-07
0.000399049
-4.30073e-07
0.000416117
-3.92552e-07
0.00042791
-3.5191e-07
0.000447418
-3.10001e-07
0.00045738
-2.68562e-07
0.000470979
-2.28564e-07
0.000483942
-1.90769e-07
0.00049633
-1.55833e-07
0.000508208
-1.24302e-07
0.000519639
-9.66111e-08
0.000530682
-7.30713e-08
0.0005414
-5.38773e-08
0.000551849
-3.91838e-08
0.000567173
-2.88996e-08
0.000572209
-2.29936e-08
0.000587349
-2.12139e-08
0.00059734
-2.32455e-08
0.00060731
-2.88002e-08
0.0006226
-3.72558e-08
0.000627392
-4.83954e-08
0.000648288
-6.15111e-08
0.00065871
-7.60354e-08
0.000669277
-9.15008e-08
0.000685512
-1.07334e-07
0.000702056
-1.22878e-07
0.000713328
-1.37697e-07
0.000730432
-1.51289e-07
0.000747872
-1.63194e-07
0.00076564
-1.73008e-07
0.000783733
-1.80394e-07
0.000802141
-1.85123e-07
0.000826721
-1.86941e-07
0.000845789
-1.85753e-07
0.000865095
-1.81557e-07
0.000890644
-1.74395e-07
0.00091652
-1.64384e-07
0.000936521
-1.51727e-07
0.000975189
-1.36645e-07
0.00101434
-1.19499e-07
0.00106021
-1.00799e-07
0.00111292
-8.12121e-08
0.00116621
-6.15333e-08
0.00122643
-4.28055e-08
0.0013067
-2.61439e-08
0.00138787
-1.30268e-08
0.00148968
-4.60298e-09
0.00160603
-2.78613e-09
0.00176412
-7.43975e-09
0.00196546
-2.17126e-08
0.0022528
-4.08578e-08
0.00269944
-6.95519e-08
0.0035601
0.00881948
-2.57592e-06
0.000169473
-1.94433e-06
0.00025288
-1.24054e-06
0.000300462
-9.54561e-07
0.000330731
-9.77837e-07
0.000357578
-7.56065e-07
0.000380369
-6.73614e-07
0.000398967
-6.28868e-07
0.000416072
-5.80319e-07
0.000427861
-5.26174e-07
0.000447364
-4.69015e-07
0.000457323
-4.10971e-07
0.000470921
-3.53864e-07
0.000483884
-2.99115e-07
0.000496275
-2.47918e-07
0.000508157
-2.01261e-07
0.000519592
-1.59935e-07
0.00053064
-1.24531e-07
0.000541365
-9.54647e-08
0.00055182
-7.28752e-08
0.00056715
-5.69937e-08
0.000572193
-4.75627e-08
0.00058734
-4.4378e-08
0.000597337
-4.69898e-08
0.000607312
-5.49462e-08
0.000622608
-6.73954e-08
0.000627404
-8.39701e-08
0.000648304
-1.03636e-07
0.00065873
-1.25526e-07
0.000669299
-1.48939e-07
0.000685536
-1.73003e-07
0.00070208
-1.96688e-07
0.000713352
-2.1934e-07
0.000730454
-2.40172e-07
0.000747893
-2.58467e-07
0.000765658
-2.7359e-07
0.000783748
-2.85011e-07
0.000802153
-2.92355e-07
0.000826728
-2.95225e-07
0.000845791
-2.93469e-07
0.000865094
-2.8705e-07
0.000890638
-2.76017e-07
0.000916509
-2.60633e-07
0.000936506
-2.41084e-07
0.00097517
-2.1778e-07
0.00101431
-1.91259e-07
0.00106018
-1.62279e-07
0.00111289
-1.31914e-07
0.00116618
-1.01419e-07
0.0012264
-7.22551e-08
0.00130667
-4.63057e-08
0.00138785
-2.56488e-08
0.00148966
-1.23107e-08
0.00160602
-8.68757e-09
0.00176412
-1.56496e-08
0.00196546
-3.5883e-08
0.00225282
-6.62177e-08
0.00269947
-1.03413e-07
0.00356014
0.00881937
-2.55217e-06
0.000172025
-2.1069e-06
0.000252434
-1.48056e-06
0.000299836
-1.21208e-06
0.000330463
-1.15572e-06
0.000357522
-9.37986e-07
0.000380151
-8.45786e-07
0.000398875
-7.9443e-07
0.000416021
-7.40571e-07
0.000427807
-6.78489e-07
0.000447302
-6.11019e-07
0.000457255
-5.40761e-07
0.000470851
-4.70347e-07
0.000483814
-4.01921e-07
0.000496207
-3.37264e-07
0.000508092
-2.77844e-07
0.000519533
-2.24836e-07
0.000530587
-1.79132e-07
0.000541319
-1.41369e-07
0.000551782
-1.11734e-07
0.000567121
-9.07353e-08
0.000572172
-7.79735e-08
0.000587327
-7.32847e-08
0.000597332
-7.61249e-08
0.000607315
-8.59154e-08
0.000622617
-1.01612e-07
0.00062742
-1.22725e-07
0.000648325
-1.47942e-07
0.000658755
-1.76139e-07
0.000669327
-2.0641e-07
0.000685566
-2.37623e-07
0.000702111
-2.68418e-07
0.000713382
-2.97943e-07
0.000730484
-3.2516e-07
0.00074792
-3.49115e-07
0.000765682
-3.68962e-07
0.000783768
-3.83991e-07
0.000802168
-3.93689e-07
0.000826738
-3.97525e-07
0.000845795
-3.95286e-07
0.000865091
-3.86898e-07
0.000890629
-3.72412e-07
0.000916494
-3.52214e-07
0.000936485
-3.26475e-07
0.000975144
-2.95762e-07
0.00101428
-2.60769e-07
0.00106015
-2.22474e-07
0.00111285
-1.82319e-07
0.00116614
-1.41963e-07
0.00122636
-1.03233e-07
0.00130663
-6.86895e-08
0.00138781
-4.09597e-08
0.00148963
-2.28289e-08
0.001606
-1.71739e-08
0.00176411
-2.57502e-08
0.00196547
-5.0949e-08
0.00225285
-9.08146e-08
0.00269951
-1.35199e-07
0.00356018
0.00881924
-2.44167e-06
0.000174467
-2.15623e-06
0.000252149
-1.62331e-06
0.000299303
-1.37982e-06
0.000330219
-1.27684e-06
0.000357419
-1.07237e-06
0.000379947
-9.8047e-07
0.000398783
-9.2885e-07
0.000415969
-8.74857e-07
0.000427753
-8.09955e-07
0.000447237
-7.36726e-07
0.000457182
-6.58274e-07
0.000470772
-5.78049e-07
0.000483734
-4.98959e-07
0.000496128
-4.23423e-07
0.000508017
-3.53425e-07
0.000519463
-2.90549e-07
0.000530524
-2.36005e-07
0.000541264
-1.90663e-07
0.000551737
-1.54798e-07
0.000567085
-1.29174e-07
0.000572146
-1.13304e-07
0.000587311
-1.07073e-07
0.000597326
-1.09873e-07
0.000607318
-1.21028e-07
0.000622629
-1.39336e-07
0.000627438
-1.64212e-07
0.00064835
-1.94105e-07
0.000658785
-2.27673e-07
0.000669361
-2.63834e-07
0.000685602
-3.01227e-07
0.000702148
-3.38205e-07
0.000713419
-3.73737e-07
0.000730519
-4.06558e-07
0.000747953
-4.35503e-07
0.000765711
-4.59534e-07
0.000783792
-4.77772e-07
0.000802186
-4.89577e-07
0.000826749
-4.94289e-07
0.0008458
-4.91636e-07
0.000865089
-4.81499e-07
0.000890619
-4.63935e-07
0.000916477
-4.39429e-07
0.000936461
-4.08135e-07
0.000975113
-3.70753e-07
0.00101424
-3.28114e-07
0.0010601
-2.81387e-07
0.00111281
-2.32345e-07
0.00116609
-1.83003e-07
0.00122631
-1.35503e-07
0.00130658
-9.30083e-08
0.00138777
-5.864e-08
0.00148959
-3.58502e-08
0.00160598
-2.79741e-08
0.0017641
-3.75596e-08
0.00196548
-6.68204e-08
0.00225288
-1.1474e-07
0.00269956
-1.65068e-07
0.00356023
0.00881907
-2.24061e-06
0.000176707
-2.09893e-06
0.000252007
-1.6728e-06
0.000298877
-1.46491e-06
0.000330011
-1.34341e-06
0.000357298
-1.16245e-06
0.000379766
-1.08013e-06
0.0003987
-1.03463e-06
0.000415923
-9.85268e-07
0.000427704
-9.22093e-07
0.000447174
-8.47159e-07
0.000457107
-7.64109e-07
0.000470689
-6.77215e-07
0.000483647
-5.90186e-07
0.000496041
-5.06118e-07
0.000507933
-4.27538e-07
0.000519384
-3.5646e-07
0.000530453
-2.94429e-07
0.000541202
-2.42559e-07
0.000551685
-2.01243e-07
0.000567043
-1.71484e-07
0.000572116
-1.52753e-07
0.000587293
-1.44989e-07
0.000597319
-1.47546e-07
0.00060732
-1.59679e-07
0.000622641
-1.80062e-07
0.000627459
-2.08027e-07
0.000648378
-2.41831e-07
0.000658819
-2.79944e-07
0.000669399
-3.21133e-07
0.000685643
-3.63839e-07
0.000702191
-4.06163e-07
0.000713462
-4.46915e-07
0.00073056
-4.8463e-07
0.000747991
-5.17951e-07
0.000765744
-5.45665e-07
0.00078382
-5.6674e-07
0.000802207
-5.80416e-07
0.000826763
-5.85912e-07
0.000845806
-5.82897e-07
0.000865086
-5.71209e-07
0.000890608
-5.50901e-07
0.000916456
-5.22543e-07
0.000936433
-4.86271e-07
0.000975077
-4.42894e-07
0.0010142
-3.93364e-07
0.00106005
-3.39013e-07
0.00111275
-2.81913e-07
0.00116603
-2.24388e-07
0.00122626
-1.68854e-07
0.00130653
-1.19008e-07
0.00138772
-7.84117e-08
0.00148955
-5.11036e-08
0.00160595
-4.08538e-08
0.00176409
-5.09139e-08
0.00196549
-8.34227e-08
0.00225291
-1.38053e-07
0.00269961
-1.93176e-07
0.00356029
0.00881888
-1.94964e-06
0.000178657
-1.93797e-06
0.000251996
-1.62917e-06
0.000298568
-1.47235e-06
0.000329854
-1.35972e-06
0.000357185
-1.21265e-06
0.000379619
-1.14851e-06
0.000398636
-1.11446e-06
0.000415889
-1.07462e-06
0.000427664
-1.01698e-06
0.000447116
-9.43746e-07
0.000457034
-8.59164e-07
0.000470605
-7.6832e-07
0.000483556
-6.75742e-07
0.000495948
-5.85219e-07
0.000507842
-4.99843e-07
0.000519299
-4.22071e-07
0.000530375
-3.5379e-07
0.000541134
-2.96366e-07
0.000551628
-2.50331e-07
0.000566997
-2.16918e-07
0.000572083
-1.95584e-07
0.000587271
-1.86337e-07
0.000597309
-1.88509e-07
0.000607323
-2.01307e-07
0.000622653
-2.23312e-07
0.000627481
-2.53789e-07
0.000648409
-2.90838e-07
0.000658856
-3.32769e-07
0.000669441
-3.78222e-07
0.000685689
-4.25467e-07
0.000702238
-4.72386e-07
0.000713509
-5.17648e-07
0.000730605
-5.59612e-07
0.000748033
-5.96748e-07
0.000765781
-6.27685e-07
0.000783851
-6.5125e-07
0.000802231
-6.66573e-07
0.000826778
-6.72763e-07
0.000845812
-6.69425e-07
0.000865082
-6.56357e-07
0.000890595
-6.33606e-07
0.000916434
-6.01806e-07
0.000936401
-5.61077e-07
0.000975036
-5.12319e-07
0.00101415
-4.56585e-07
0.00106
-3.95354e-07
0.00111269
-3.30955e-07
0.00116597
-2.65982e-07
0.00122619
-2.03094e-07
0.00130647
-1.46453e-07
0.00138767
-1.00014e-07
0.00148951
-6.83334e-08
0.00160592
-5.55891e-08
0.00176408
-6.56545e-08
0.0019655
-1.0068e-07
0.00225294
-1.608e-07
0.00269967
-2.19679e-07
0.00356034
0.00881866
-1.54062e-06
0.000180198
-1.668e-06
0.000252123
-1.49412e-06
0.000298394
-1.4094e-06
0.00032977
-1.3315e-06
0.000357107
-1.22883e-06
0.000379516
-1.19055e-06
0.000398598
-1.17369e-06
0.000415873
-1.14625e-06
0.000427636
-1.09708e-06
0.000447067
-1.02822e-06
0.000456965
-9.44566e-07
0.000470521
-8.52021e-07
0.000483463
-7.55913e-07
0.000495852
-6.60727e-07
0.000507747
-5.70119e-07
0.000519208
-4.86992e-07
0.000530292
-4.13573e-07
0.000541061
-3.51488e-07
0.000551566
-3.01417e-07
0.000566947
-2.64812e-07
0.000572046
-2.41142e-07
0.000587248
-2.30487e-07
0.000597299
-2.32178e-07
0.000607324
-2.45393e-07
0.000622667
-2.68641e-07
0.000627504
-3.01138e-07
0.000648441
-3.40852e-07
0.000658896
-3.85968e-07
0.000669486
-4.35009e-07
0.000685738
-4.86104e-07
0.000702289
-5.36948e-07
0.000713559
-5.86081e-07
0.000730654
-6.31708e-07
0.000748078
-6.72148e-07
0.000765822
-7.05886e-07
0.000783885
-7.31621e-07
0.000802257
-7.48383e-07
0.000826795
-7.55175e-07
0.000845819
-7.51544e-07
0.000865079
-7.37246e-07
0.00089058
-7.12318e-07
0.000916409
-6.77447e-07
0.000936366
-6.32732e-07
0.000974991
-5.79152e-07
0.0010141
-5.17842e-07
0.00105994
-4.50408e-07
0.00111262
-3.79403e-07
0.0011659
-3.07659e-07
0.00122612
-2.38041e-07
0.0013064
-1.75121e-07
0.0013876
-1.23204e-07
0.00148946
-8.73005e-08
0.00160588
-7.19683e-08
0.00176406
-8.16294e-08
0.00196551
-1.18513e-07
0.00225298
-1.83024e-07
0.00269974
-2.44711e-07
0.00356041
0.00881842
-9.47369e-07
0.000181145
-1.27956e-06
0.000252455
-1.2725e-06
0.000298387
-1.2868e-06
0.000329784
-1.26727e-06
0.000357088
-1.21853e-06
0.000379467
-1.21243e-06
0.000398592
-1.21643e-06
0.000415877
-1.20392e-06
0.000427624
-1.16517e-06
0.000447028
-1.10251e-06
0.000456902
-1.0216e-06
0.00047044
-9.29091e-07
0.000483371
-8.31086e-07
0.000495754
-7.32733e-07
0.000507649
-6.38233e-07
0.000519114
-5.50919e-07
0.000530205
-4.73352e-07
0.000540983
-4.0741e-07
0.0005515
-3.53933e-07
0.000566894
-3.14573e-07
0.000572007
-2.88832e-07
0.000587222
-2.76869e-07
0.000597287
-2.78024e-07
0.000607325
-2.9146e-07
0.00062268
-3.15638e-07
0.000627528
-3.49734e-07
0.000648475
-3.91616e-07
0.000658938
-4.39359e-07
0.000669534
-4.91396e-07
0.00068579
-5.4573e-07
0.000702344
-5.99898e-07
0.000713614
-6.5233e-07
0.000730707
-7.01093e-07
0.000748127
-7.44372e-07
0.000765865
-7.80526e-07
0.000783921
-8.08136e-07
0.000802284
-8.2614e-07
0.000826813
-8.33446e-07
0.000845826
-8.29543e-07
0.000865075
-8.14147e-07
0.000890565
-7.87279e-07
0.000916382
-7.4967e-07
0.000936328
-7.01398e-07
0.000974943
-6.43501e-07
0.00101404
-5.77188e-07
0.00105987
-5.04169e-07
0.00111255
-4.27195e-07
0.00116582
-3.493e-07
0.00122604
-2.73528e-07
0.00130632
-2.0481e-07
0.00138753
-1.47757e-07
0.0014894
-1.0778e-07
0.00160584
-8.97913e-08
0.00176405
-9.86915e-08
0.00196552
-1.36842e-07
0.00225302
-2.04751e-07
0.00269981
-2.68384e-07
0.00356047
0.00881815
-3.4569e-07
0.000181491
-7.85167e-07
0.000252895
-9.79125e-07
0.000298581
-1.12141e-06
0.000329926
-1.17956e-06
0.000357146
-1.1915e-06
0.000379479
-1.22144e-06
0.000398622
-1.24849e-06
0.000415904
-1.25168e-06
0.000427627
-1.22415e-06
0.000447001
-1.16865e-06
0.000456847
-1.0916e-06
0.000470363
-1.00036e-06
0.00048328
-9.01697e-07
0.000495655
-8.01377e-07
0.000507548
-7.041e-07
0.000519016
-6.136e-07
0.000530115
-5.32753e-07
0.000540902
-4.63677e-07
0.000551431
-4.07367e-07
0.000566837
-3.65664e-07
0.000571965
-3.38115e-07
0.000587194
-3.24957e-07
0.000597273
-3.25553e-07
0.000607326
-3.39062e-07
0.000622694
-3.63913e-07
0.000627553
-3.99254e-07
0.000648511
-4.42875e-07
0.000658981
-4.92763e-07
0.000669584
-5.47274e-07
0.000685844
-6.04308e-07
0.000702401
-6.61266e-07
0.000713671
-7.16484e-07
0.000730762
-7.67909e-07
0.000748179
-8.13607e-07
0.000765911
-8.51824e-07
0.000783959
-8.8104e-07
0.000802313
-9.00104e-07
0.000826832
-9.07837e-07
0.000845834
-9.03677e-07
0.000865071
-8.87298e-07
0.000890548
-8.58705e-07
0.000916353
-8.18657e-07
0.000936288
-7.67212e-07
0.000974891
-7.0546e-07
0.00101398
-6.34665e-07
0.0010598
-5.56628e-07
0.00111247
-4.74266e-07
0.00116574
-3.90789e-07
0.00122596
-3.09393e-07
0.00130624
-2.35323e-07
0.00138746
-1.73456e-07
0.00148934
-1.29562e-07
0.0016058
-1.08861e-07
0.00176403
-1.16702e-07
0.00196553
-1.55566e-07
0.00225306
-2.26012e-07
0.00269988
-2.90731e-07
0.00356053
0.00881786
8.55703e-06
-8.55703e-06
1.79438e-05
-9.38681e-06
2.64807e-05
-8.5369e-06
3.3867e-05
-7.38629e-06
3.99853e-05
-6.11829e-06
4.47897e-05
-4.80435e-06
4.82948e-05
-3.5052e-06
5.05483e-05
-2.25344e-06
5.16124e-05
-1.06408e-06
5.15714e-05
4.09894e-08
5.05147e-05
1.05665e-06
4.85113e-05
2.00338e-06
4.56261e-05
2.88526e-06
4.19365e-05
3.68955e-06
3.75542e-05
4.38233e-06
3.26639e-05
4.89031e-06
2.76134e-05
5.05048e-06
2.31116e-05
4.50182e-06
1.95139e-05
3.59773e-06
1.88248e-05
6.89073e-07
9.31739e-06
-1.78744e-05
1.8243e-05
-1.83124e-05
2.64475e-05
-1.67415e-05
3.35879e-05
-1.45267e-05
3.95476e-05
-1.2078e-05
4.43177e-05
-9.57444e-06
4.79297e-05
-7.11719e-06
5.04315e-05
-4.75526e-06
5.18727e-05
-2.50521e-06
5.22835e-05
-3.69849e-07
5.1694e-05
1.64613e-06
5.01462e-05
3.55119e-06
4.76828e-05
5.34871e-06
4.43507e-05
7.0216e-06
4.02099e-05
8.5232e-06
3.53334e-05
9.76681e-06
2.97728e-05
1.06111e-05
2.33715e-05
1.09031e-05
1.48571e-05
1.21122e-05
3.14821e-05
2.19979e-06
8.74376e-06
-2.66182e-05
1.71638e-05
-2.67324e-05
2.47874e-05
-2.43651e-05
3.13857e-05
-2.11249e-05
3.68837e-05
-1.7576e-05
4.12907e-05
-1.39815e-05
4.46471e-05
-1.04735e-05
4.70019e-05
-7.11014e-06
4.84037e-05
-3.90701e-06
4.88924e-05
-8.58545e-07
4.84973e-05
2.04127e-06
4.72432e-05
4.80529e-06
4.51524e-05
7.43952e-06
4.22386e-05
9.93535e-06
3.85032e-05
1.22586e-05
3.39256e-05
1.43444e-05
2.84319e-05
1.61048e-05
2.17889e-05
1.75461e-05
1.3266e-05
2.0635e-05
4.19824e-05
2.76566e-06
8.06838e-06
-3.46866e-05
1.58097e-05
-3.44737e-05
2.27322e-05
-3.12876e-05
2.86715e-05
-2.70642e-05
3.36004e-05
-2.2505e-05
3.75462e-05
-1.79273e-05
4.05542e-05
-1.34816e-05
4.26731e-05
-9.22905e-06
4.39472e-05
-5.18114e-06
4.4412e-05
-1.3233e-06
4.40932e-05
2.36004e-06
4.30128e-05
5.88571e-06
4.11869e-05
9.26543e-06
3.86193e-05
1.2503e-05
3.52933e-05
1.55846e-05
3.11653e-05
1.84723e-05
2.61586e-05
2.11115e-05
2.01147e-05
2.359e-05
1.24928e-05
2.82569e-05
5.1329e-05
3.14629e-06
7.3253e-06
-4.20119e-05
1.42716e-05
-4.142e-05
2.04033e-05
-3.74192e-05
2.56195e-05
-3.22805e-05
2.9931e-05
-2.68164e-05
3.33766e-05
-2.13728e-05
3.60034e-05
-1.61084e-05
3.78585e-05
-1.10842e-05
3.89828e-05
-6.30537e-06
3.94064e-05
-1.74695e-06
3.91493e-05
2.61711e-06
3.82277e-05
6.8073e-06
3.66527e-05
1.08405e-05
3.44259e-05
1.47298e-05
3.15327e-05
1.84778e-05
2.7938e-05
2.20671e-05
2.35856e-05
2.54638e-05
1.83426e-05
2.88331e-05
1.16262e-05
3.49732e-05
5.96358e-05
3.31939e-06
6.51258e-06
-4.85244e-05
1.25887e-05
-4.74961e-05
1.78805e-05
-4.2711e-05
2.23479e-05
-3.67479e-05
2.60258e-05
-3.04943e-05
2.89576e-05
-2.43046e-05
3.119e-05
-1.83408e-05
3.27689e-05
-1.26631e-05
3.37335e-05
-7.26995e-06
3.41104e-05
-2.12393e-06
3.39154e-05
2.81217e-06
3.31604e-05
7.56229e-06
3.18522e-05
1.21486e-05
2.99905e-05
1.65915e-05
2.75642e-05
2.09042e-05
2.45481e-05
2.50831e-05
2.08988e-05
2.91132e-05
1.647e-05
3.32618e-05
1.05957e-05
4.08475e-05
6.69915e-05
3.23999e-06
5.64084e-06
-5.41653e-05
1.07979e-05
-5.26532e-05
1.52277e-05
-4.71409e-05
1.89406e-05
-4.04607e-05
2.19822e-05
-3.35359e-05
2.43954e-05
-2.67178e-05
2.62262e-05
-2.01716e-05
2.75208e-05
-1.39577e-05
2.832e-05
-8.06913e-06
2.86502e-05
-2.45409e-06
2.85241e-05
2.93819e-06
2.79505e-05
8.13587e-06
2.69317e-05
1.31675e-05
2.54638e-05
1.80594e-05
2.35356e-05
2.28324e-05
2.1126e-05
2.74927e-05
1.8193e-05
3.20462e-05
1.4554e-05
3.69008e-05
9.44033e-06
4.59612e-05
7.3516e-05
2.91591e-06
4.72281e-06
-5.88881e-05
8.93041e-06
-5.68608e-05
1.24913e-05
-5.07018e-05
1.54522e-05
-4.34216e-05
1.78596e-05
-3.59434e-05
1.97538e-05
-2.8612e-05
2.11795e-05
-2.15973e-05
2.21847e-05
-1.49629e-05
2.28144e-05
-8.69884e-06
2.30988e-05
-2.73845e-06
2.30504e-05
2.98654e-06
2.26749e-05
8.51137e-06
2.19689e-05
1.38735e-05
2.09226e-05
1.91057e-05
1.95202e-05
2.42348e-05
1.7738e-05
2.92749e-05
1.55237e-05
3.42605e-05
1.26343e-05
3.97902e-05
8.18359e-06
5.04119e-05
7.93259e-05
2.37366e-06
3.76694e-06
-6.2655e-05
7.00443e-06
-6.00983e-05
9.69381e-06
-5.33912e-05
1.19058e-05
-4.56336e-05
1.36823e-05
-3.77199e-05
1.50609e-05
-2.99906e-05
1.60837e-05
-2.26201e-05
1.67988e-05
-1.5678e-05
1.72573e-05
-9.15738e-06
1.74983e-05
-2.97945e-06
1.75383e-05
2.94653e-06
1.73795e-05
8.6702e-06
1.70103e-05
1.42427e-05
1.64119e-05
1.97041e-05
1.556e-05
2.50867e-05
1.44219e-05
3.0413e-05
1.29231e-05
3.57594e-05
1.07308e-05
4.19825e-05
6.84041e-06
5.43023e-05
8.45441e-05
1.6222e-06
2.77455e-06
-6.54296e-05
5.02191e-06
-6.23456e-05
6.83312e-06
-5.52024e-05
8.29516e-06
-4.70956e-05
9.44485e-06
-3.88696e-05
1.03173e-05
-3.08631e-05
1.09488e-05
-2.32515e-05
1.1383e-05
-1.61123e-05
1.16745e-05
-9.44888e-06
1.18765e-05
-3.1814e-06
1.20172e-05
2.80585e-06
1.20947e-05
8.59265e-06
1.20863e-05
1.42512e-05
1.19612e-05
1.98292e-05
1.16821e-05
2.53658e-05
1.12012e-05
3.08938e-05
1.04097e-05
3.65509e-05
8.85236e-06
4.35398e-05
5.42542e-06
5.77292e-05
8.93523e-05
6.17172e-07
1.73854e-06
-6.71681e-05
2.96772e-06
-6.35748e-05
3.885e-06
-5.61196e-05
4.59068e-06
-4.78013e-05
5.11867e-06
-3.93976e-05
5.50148e-06
-3.12459e-05
5.76623e-06
-2.35163e-05
5.9461e-06
-1.62921e-05
6.08947e-06
-9.59226e-06
6.26247e-06
-3.35439e-06
6.51422e-06
2.5541e-06
6.84371e-06
8.26317e-06
7.21694e-06
1.3878e-05
7.58864e-06
1.94575e-05
7.90165e-06
2.50528e-05
8.08401e-06
3.07115e-05
7.98116e-06
3.66537e-05
6.9703e-06
4.45507e-05
3.89101e-06
6.08085e-05
9.39018e-05
-6.58406e-07
6.40181e-07
-6.78083e-05
8.09751e-07
-6.37444e-05
8.09062e-07
-5.61189e-05
7.46435e-07
-4.77387e-05
6.57922e-07
-3.9309e-05
5.72475e-07
-3.11604e-05
5.07683e-07
-2.34515e-05
4.80901e-07
-1.62653e-05
5.19961e-07
-9.63132e-06
6.84441e-07
-3.51887e-06
1.04955e-06
2.18899e-06
1.63473e-06
7.67799e-06
2.4022e-06
1.31105e-05
3.2926e-06
1.85671e-05
4.21548e-06
2.41299e-05
5.05385e-06
2.98731e-05
5.59705e-06
3.61105e-05
4.9884e-06
4.51593e-05
2.08609e-06
6.37108e-05
9.81061e-05
-2.11831e-06
-5.57238e-07
-6.72511e-05
-1.49715e-06
-6.28045e-05
-2.4514e-06
-5.51647e-05
-3.30341e-06
-4.68866e-05
-4.01121e-06
-3.86012e-05
-4.54856e-06
-3.06231e-05
-4.90359e-06
-2.30965e-05
-5.0733e-06
-1.60956e-05
-5.05692e-06
-9.64771e-06
-4.83424e-06
-3.74154e-06
-4.34608e-06
1.70083e-06
-3.53712e-06
6.86902e-06
-2.41324e-06
1.19866e-05
-1.02917e-06
1.7183e-05
5.12691e-07
2.2588e-05
2.03374e-06
2.83521e-05
3.15211e-06
3.49921e-05
2.73931e-06
4.55721e-05
-1.75721e-07
6.66259e-05
0.000101594
-3.66308e-06
-1.88796e-06
-6.53631e-05
-4.00746e-06
-6.0685e-05
-5.97361e-06
-5.31985e-05
-7.6595e-06
-4.52008e-05
-9.01439e-06
-3.72463e-05
-1.00123e-05
-2.96252e-05
-1.06436e-05
-2.24651e-05
-1.09144e-05
-1.58248e-05
-1.08474e-05
-9.71477e-06
-1.04747e-05
-4.11419e-06
-9.79668e-06
1.02279e-06
-8.74749e-06
5.81982e-06
-7.28737e-06
1.05265e-05
-5.46143e-06
1.53571e-05
-3.3671e-06
2.04937e-05
-1.22793e-06
2.62129e-05
2.59571e-07
3.35046e-05
-2.24124e-07
4.60558e-05
-2.82356e-06
6.92253e-05
0.00010398
-5.21006e-06
-3.36931e-06
-6.19938e-05
-6.78088e-06
-5.72734e-05
-9.86207e-06
-5.01174e-05
-1.24698e-05
-4.25931e-05
-1.45464e-05
-3.51697e-05
-1.60669e-05
-2.81047e-05
-1.70243e-05
-2.15077e-05
-1.74288e-05
-1.54204e-05
-1.73097e-05
-9.83386e-06
-1.67234e-05
-4.7004e-06
-1.57597e-05
5.90833e-08
-1.44045e-05
4.46463e-06
-1.25751e-05
8.69709e-06
-1.03093e-05
1.30912e-05
-7.74051e-06
1.7925e-05
-5.25479e-06
2.37272e-05
-3.76704e-06
3.20169e-05
-4.1531e-06
4.64419e-05
-5.6623e-06
7.07345e-05
0.000104973
-6.65562e-06
-5.03245e-06
-5.69613e-05
-9.89173e-06
-5.24141e-05
-1.42299e-05
-4.57792e-05
-1.78885e-05
-3.89345e-05
-2.08081e-05
-3.22501e-05
-2.29716e-05
-2.59412e-05
-2.43826e-05
-2.00967e-05
-2.50615e-05
-1.47415e-05
-2.50449e-05
-9.8504e-06
-2.43886e-05
-5.35677e-06
-2.31517e-05
-1.17774e-06
-2.14226e-05
2.73555e-06
-1.92273e-05
6.50174e-06
-1.66034e-05
1.04673e-05
-1.37567e-05
1.50783e-05
-1.11657e-05
2.11361e-05
-9.5336e-06
3.03848e-05
-8.97943e-06
4.58877e-05
-8.63312e-06
7.03882e-05
0.000104109
-7.76843e-06
-6.89701e-06
-5.00643e-05
-1.33934e-05
-4.59177e-05
-1.91643e-05
-4.00083e-05
-2.40364e-05
-3.40624e-05
-2.79547e-05
-2.83318e-05
-3.09208e-05
-2.2975e-05
-3.29608e-05
-1.80567e-05
-3.41137e-05
-1.35886e-05
-3.44256e-05
-9.53851e-06
-3.3945e-05
-5.83737e-06
-3.27351e-05
-2.38768e-06
-3.09272e-05
9.27642e-07
-2.86219e-05
4.19649e-06
-2.58744e-05
7.71977e-06
-2.2883e-05
1.20869e-05
-1.9969e-05
1.82222e-05
-1.73678e-05
2.77836e-05
-1.47709e-05
4.32907e-05
-1.16238e-05
6.72411e-05
0.000100678
-8.19291e-06
-8.95892e-06
-4.11054e-05
-1.73089e-05
-3.75677e-05
-2.47077e-05
-3.26095e-05
-3.09712e-05
-2.7799e-05
-3.60571e-05
-2.32459e-05
-3.99979e-05
-1.90342e-05
-4.28555e-05
-1.51991e-05
-4.47023e-05
-1.17418e-05
-4.56097e-05
-8.63113e-06
-4.56417e-05
-5.80533e-06
-4.48629e-05
-3.16653e-06
-4.33607e-05
-5.74595e-07
-4.12479e-05
2.0837e-06
-3.85795e-05
5.05142e-06
-3.54011e-05
8.90844e-06
-3.17292e-05
1.45503e-05
-2.73595e-05
2.34139e-05
-2.17445e-05
3.76757e-05
-1.46451e-05
6.01418e-05
9.35388e-05
-7.5062e-06
-1.12523e-05
-2.98531e-05
-2.16538e-05
-2.71662e-05
-3.08398e-05
-2.34235e-05
-3.8645e-05
-1.99937e-05
-4.50537e-05
-1.68372e-05
-5.01348e-05
-1.39531e-05
-5.39881e-05
-1.13458e-05
-5.67214e-05
-9.00846e-06
-5.84359e-05
-6.91669e-06
-5.92165e-05
-5.02467e-06
-5.9125e-05
-3.25804e-06
-5.81937e-05
-1.50589e-06
-5.64975e-05
3.87451e-07
-5.4051e-05
2.60488e-06
-5.07002e-05
5.55772e-06
-4.61523e-05
1.00024e-05
-3.97954e-05
1.7057e-05
-3.06428e-05
2.85231e-05
-1.82266e-05
4.77256e-05
8.05717e-05
-5.25948e-06
-1.3907e-05
-1.59461e-05
-2.63858e-05
-1.46874e-05
-3.73625e-05
-1.24469e-05
-4.67276e-05
-1.06286e-05
-5.45293e-05
-9.03555e-06
-6.08753e-05
-7.60706e-06
-6.58919e-05
-6.32924e-06
-6.9709e-05
-5.19138e-06
-7.24488e-05
-4.17686e-06
-7.4213e-05
-3.26045e-06
-7.50701e-05
-2.40094e-06
-7.50435e-05
-1.53246e-06
-7.4103e-05
-5.53098e-07
-7.21808e-05
6.82714e-07
-6.9015e-05
2.39188e-06
-6.40176e-05
5.00497e-06
-5.61532e-05
9.1926e-06
-4.36391e-05
1.6009e-05
-2.39248e-05
2.80114e-05
5.64062e-05
2.40656e-07
-1.59461e-05
-3.06335e-05
-4.30804e-05
-5.3709e-05
-6.27445e-05
-7.03516e-05
-7.66808e-05
-8.18722e-05
-8.60491e-05
-8.93095e-05
-9.17105e-05
-9.32429e-05
-9.3796e-05
-9.31133e-05
-9.07214e-05
-8.57164e-05
-7.65238e-05
-6.05149e-05
-3.25035e-05
2.39027e-05
4.48316e-07
0.000181731
-2.10204e-07
0.000253553
-6.29155e-07
0.000299
-8.99094e-07
0.000330196
-1.03601e-06
0.000357283
-1.10458e-06
0.000379548
-1.16641e-06
0.000398684
-1.21227e-06
0.000415949
-1.22983e-06
0.000427645
-1.21354e-06
0.000446984
-1.1673e-06
0.0004568
-1.09786e-06
0.000470294
-1.01278e-06
0.000483195
-9.19026e-07
0.000495562
-8.22555e-07
0.000507452
-7.28238e-07
0.000518922
-6.39954e-07
0.000530026
-5.60694e-07
0.000540823
-4.92671e-07
0.000551363
-4.36963e-07
0.000566782
-3.95474e-07
0.000571924
-3.67816e-07
0.000587167
-3.54281e-07
0.00059726
-3.54286e-07
0.000607326
-3.67031e-07
0.000622706
-3.91005e-07
0.000627577
-4.25376e-07
0.000648545
-4.67986e-07
0.000659024
-5.16858e-07
0.000669632
-5.70371e-07
0.000685898
-6.26452e-07
0.000702457
-6.82527e-07
0.000713727
-7.36943e-07
0.000730817
-7.87659e-07
0.000748229
-8.32747e-07
0.000765956
-8.70453e-07
0.000783997
-8.99255e-07
0.000802342
-9.17996e-07
0.000826851
-9.25489e-07
0.000845841
-9.2116e-07
0.000865066
-9.0467e-07
0.000890532
-8.7601e-07
0.000916324
-8.35932e-07
0.000936248
-7.84471e-07
0.00097484
-7.22701e-07
0.00101392
-6.51867e-07
0.00105973
-5.73749e-07
0.00111239
-4.91242e-07
0.00116566
-4.07527e-07
0.00122588
-3.25741e-07
0.00130616
-2.51103e-07
0.00138738
-1.8841e-07
0.00148927
-1.43442e-07
0.00160575
-1.21284e-07
0.001764
-1.27499e-07
0.00196553
-1.64205e-07
0.00225309
-2.32398e-07
0.00269994
-2.93238e-07
0.0035606
0.00881756
1.10523e-06
0.000182826
2.78863e-07
0.00025438
-3.47852e-07
0.000299627
-7.46036e-07
0.000330594
-9.60973e-07
0.000357498
-1.08161e-06
0.000379668
-1.17343e-06
0.000398775
-1.23812e-06
0.000416014
-1.26693e-06
0.000427674
-1.25924e-06
0.000446977
-1.21892e-06
0.00045676
-1.15325e-06
0.000470228
-1.07015e-06
0.000483112
-9.76987e-07
0.000495468
-8.80074e-07
0.000507355
-7.84608e-07
0.000518826
-6.94739e-07
0.000529936
-6.13683e-07
0.000540742
-5.43829e-07
0.000551293
-4.86379e-07
0.000566724
-4.43378e-07
0.000571881
-4.14486e-07
0.000587138
-4.00062e-07
0.000597246
-3.99555e-07
0.000607326
-4.12175e-07
0.000622719
-4.36407e-07
0.000627601
-4.71405e-07
0.00064858
-5.14972e-07
0.000659068
-5.65081e-07
0.000669683
-6.20065e-07
0.000685953
-6.77787e-07
0.000702515
-7.35585e-07
0.000713784
-7.91743e-07
0.000730873
-8.44138e-07
0.000748282
-8.90763e-07
0.000766003
-9.29784e-07
0.000784036
-9.59604e-07
0.000802372
-9.79e-07
0.00082687
-9.86724e-07
0.000845849
-9.82156e-07
0.000865062
-9.64922e-07
0.000890515
-9.35e-07
0.000916295
-8.93151e-07
0.000936206
-8.39392e-07
0.000974786
-7.74821e-07
0.00101385
-7.0072e-07
0.00105965
-6.18921e-07
0.00111231
-5.32431e-07
0.00116557
-4.44543e-07
0.00122579
-3.58493e-07
0.00130607
-2.79714e-07
0.00138731
-2.13186e-07
0.00148921
-1.64938e-07
0.0016057
-1.40282e-07
0.00176398
-1.45102e-07
0.00196554
-1.81651e-07
0.00225313
-2.50803e-07
0.00270001
-3.11507e-07
0.00356066
0.00881725
1.49853e-06
0.000184093
6.17193e-07
0.000255261
-1.4995e-07
0.000300394
-6.38858e-07
0.000331083
-9.14112e-07
0.000357773
-1.07512e-06
0.000379829
-1.18971e-06
0.00039889
-1.26696e-06
0.000416091
-1.30531e-06
0.000427712
-1.3041e-06
0.000446975
-1.26849e-06
0.000456725
-1.20604e-06
0.000470166
-1.12485e-06
0.00048303
-1.03249e-06
0.000495376
-9.35517e-07
0.000507258
-8.39366e-07
0.00051873
-7.48398e-07
0.000529845
-6.66007e-07
0.000540659
-5.94734e-07
0.000551221
-5.3589e-07
0.000566665
-4.91641e-07
0.000571836
-4.61701e-07
0.000587108
-4.46489e-07
0.00059723
-4.45491e-07
0.000607325
-4.57929e-07
0.000622731
-4.82293e-07
0.000627626
-5.17729e-07
0.000648615
-5.62016e-07
0.000659112
-6.13086e-07
0.000669734
-6.69235e-07
0.000686009
-7.28273e-07
0.000702574
-7.87471e-07
0.000713844
-8.45054e-07
0.00073093
-8.98834e-07
0.000748335
-9.4673e-07
0.000766051
-9.86841e-07
0.000784076
-1.0175e-06
0.000802403
-1.03743e-06
0.00082689
-1.04532e-06
0.000845857
-1.04052e-06
0.000865057
-1.02262e-06
0.000890497
-9.9156e-07
0.000916264
-9.48132e-07
0.000936163
-8.92319e-07
0.00097473
-8.25247e-07
0.00101379
-7.48215e-07
0.00105958
-6.63103e-07
0.00111223
-5.73009e-07
0.00116548
-4.81325e-07
0.0012257
-3.91365e-07
0.00130598
-3.08748e-07
0.00138722
-2.3861e-07
0.00148914
-1.87202e-07
0.00160565
-1.60046e-07
0.00176395
-1.6329e-07
0.00196554
-1.99372e-07
0.00225317
-2.68904e-07
0.00270008
-3.29034e-07
0.00356072
0.00881692
1.67363e-06
0.000185566
7.67174e-07
0.000256167
-6.73515e-08
0.000301228
-5.99345e-07
0.000331615
-9.08393e-07
0.000358082
-1.09305e-06
0.000380014
-1.22029e-06
0.000399017
-1.30515e-06
0.000416176
-1.34724e-06
0.000427754
-1.34972e-06
0.000446978
-1.31714e-06
0.000456692
-1.25703e-06
0.000470106
-1.1774e-06
0.000482951
-1.08586e-06
0.000495285
-9.89065e-07