/*--------------------------------*- C++ -*----------------------------------*\
| =========                 |                                                 |
| \\      /  F ield         | OpenFOAM: The Open Source CFD Toolbox           |
|  \\    /   O peration     | Version:  3.0.1                                 |
|   \\  /    A nd           | Web:      www.OpenFOAM.org                      |
|    \\/     M anipulation  |                                                 |
\*---------------------------------------------------------------------------*/
FoamFile
{
    version     2.0;
    format      ascii;
    class       volScalarField;
    location    "2200";
    object      TS;
}
// * * * * * * * * * * * * * * * * * * * * * * * * * * * * * * * * * * * * * //

dimensions      [1 -3 0 0 0 0 0];

internalField   nonuniform List<scalar> 
14431
(
2.14977e-25
1.64236e-24
9.90539e-24
4.83643e-23
1.95623e-22
5.78872e-22
1.43058e-21
3.17772e-21
6.54218e-21
1.27026e-20
2.35376e-20
4.16765e-20
7.10922e-20
1.17204e-19
1.87228e-19
2.90409e-19
4.38136e-19
6.43869e-19
9.22811e-19
1.29291e-18
1.77009e-18
2.36898e-18
3.10594e-18
3.98608e-18
5.01493e-18
6.1819e-18
7.47539e-18
8.87415e-18
1.03289e-17
1.17986e-17
1.32327e-17
1.45631e-17
1.57304e-17
1.66795e-17
1.73571e-17
1.77228e-17
1.77522e-17
1.74384e-17
1.67888e-17
1.58388e-17
1.46353e-17
1.32325e-17
1.17033e-17
1.0111e-17
8.5079e-18
6.95454e-18
5.50151e-18
4.19564e-18
3.07106e-18
2.13967e-18
1.40633e-18
8.61845e-19
4.84509e-19
2.43442e-19
1.05208e-19
3.67735e-20
9.34836e-21
1.43026e-21
4.73206e-23
1.20993e-24
8.47436e-24
4.72768e-23
2.16389e-22
8.08241e-22
2.31965e-21
5.55682e-21
1.21012e-20
2.45362e-20
4.7033e-20
8.61846e-20
1.51119e-19
2.55555e-19
4.18062e-19
6.63201e-19
1.02225e-18
1.53354e-18
2.24209e-18
3.19848e-18
4.46222e-18
6.08557e-18
8.11595e-18
1.06066e-17
1.35726e-17
1.70305e-17
2.0943e-17
2.52695e-17
2.99381e-17
3.47833e-17
3.96683e-17
4.44248e-17
4.88279e-17
5.2681e-17
5.58026e-17
5.80186e-17
5.91961e-17
5.92568e-17
5.81795e-17
5.59902e-17
5.28072e-17
4.87868e-17
4.41086e-17
3.90142e-17
3.3713e-17
2.83774e-17
2.3208e-17
1.83717e-17
1.40237e-17
1.02769e-17
7.17099e-18
4.72248e-18
2.90143e-18
1.63652e-18
8.259e-19
3.59071e-19
1.26559e-19
3.25592e-20
5.06549e-21
1.70306e-22
4.03765e-24
2.6248e-23
1.35755e-22
5.80292e-22
2.01175e-21
5.50469e-21
1.28365e-20
2.73862e-20
5.45999e-20
1.0316e-19
1.86645e-19
3.23621e-19
5.41809e-19
8.78393e-19
1.38217e-18
2.11485e-18
3.15149e-18
4.57971e-18
6.49721e-18
9.01857e-18
1.22429e-17
1.6259e-17
2.1167e-17
2.69909e-17
3.37584e-17
4.13923e-17
4.98097e-17
5.88674e-17
6.82427e-17
7.767e-17
8.68239e-17
9.5272e-17
1.02638e-16
1.08577e-16
1.12756e-16
1.14927e-16
1.14943e-16
1.12768e-16
1.08457e-16
1.02242e-16
9.44241e-17
8.53505e-17
7.54863e-17
6.52329e-17
5.49208e-17
4.4934e-17
3.55922e-17
2.71925e-17
1.99513e-17
1.3944e-17
9.2026e-18
5.67009e-18
3.21036e-18
1.62853e-18
7.13075e-19
2.53859e-19
6.62564e-20
1.05223e-20
3.60546e-22
1.06927e-23
6.54531e-23
3.16836e-22
1.27205e-21
4.1413e-21
1.08967e-20
2.48533e-20
5.21005e-20
1.02359e-19
1.9096e-19
3.41662e-19
5.86589e-19
9.73441e-19
1.56568e-18
2.44604e-18
3.71846e-18
5.50858e-18
7.96216e-18
1.12408e-17
1.55331e-17
2.10001e-17
2.77846e-17
3.60468e-17
4.58196e-17
5.71416e-17
6.98762e-17
8.38796e-17
9.89081e-17
1.14423e-16
1.29982e-16
1.45047e-16
1.58906e-16
1.70944e-16
1.80594e-16
1.87322e-16
1.90722e-16
1.90565e-16
1.86801e-16
1.79527e-16
1.69133e-16
1.5612e-16
1.41061e-16
1.24723e-16
1.07764e-16
9.07265e-17
7.42387e-17
5.88233e-17
4.49659e-17
3.30193e-17
2.31049e-17
1.52741e-17
9.43272e-18
5.3577e-18
2.72981e-18
1.20269e-18
4.31971e-19
1.14212e-19
1.84837e-20
6.44965e-22
2.45984e-23
1.43367e-22
6.54872e-22
2.48613e-21
7.68365e-21
1.95897e-20
4.38648e-20
9.06081e-20
1.75809e-19
3.24472e-19
5.75037e-19
9.78995e-19
1.61245e-18
2.57597e-18
3.99988e-18
6.047e-18
8.91313e-18
1.28242e-17
1.80291e-17
2.48178e-17
3.34341e-17
4.40921e-17
5.70321e-17
7.22938e-17
8.99265e-17
1.09707e-16
1.31403e-16
1.54629e-16
1.78545e-16
2.02466e-16
2.25562e-16
2.46739e-16
2.65057e-16
2.79656e-16
2.89723e-16
2.94655e-16
2.94114e-16
2.88037e-16
2.76589e-16
2.60381e-16
2.40189e-16
2.16898e-16
1.91686e-16
1.65561e-16
1.3935e-16
1.14011e-16
9.03398e-17
6.90731e-17
5.07451e-17
3.55357e-17
2.35195e-17
1.455e-17
8.28483e-18
4.23626e-18
1.87601e-18
6.78895e-19
1.81524e-19
2.98731e-20
1.0601e-21
5.13155e-23
2.87231e-22
1.24676e-21
4.50532e-21
1.33389e-20
3.3145e-20
7.30825e-20
1.49112e-19
2.86317e-19
5.23657e-19
9.20631e-19
1.55631e-18
2.54714e-18
4.04605e-18
6.2503e-18
9.40517e-18
1.38042e-17
1.97844e-17
2.77155e-17
3.80265e-17
5.10738e-17
6.71669e-17
8.66531e-17
1.09576e-16
1.35995e-16
1.6556e-16
1.97912e-16
2.3246e-16
2.67947e-16
3.0335e-16
3.37432e-16
3.68576e-16
3.95399e-16
4.1664e-16
4.31116e-16
4.37955e-16
4.36685e-16
4.27235e-16
4.09874e-16
3.85525e-16
3.55349e-16
3.20662e-16
2.8321e-16
2.44476e-16
2.05675e-16
1.68215e-16
1.33258e-16
1.0188e-16
7.48563e-17
5.24402e-17
3.47332e-17
2.15129e-17
1.22722e-17
6.29258e-18
2.79825e-18
1.01901e-18
2.75087e-19
4.59395e-20
1.65545e-21
9.96156e-23
5.38784e-22
2.23521e-21
7.73641e-21
2.21062e-20
5.37821e-20
1.17065e-19
2.3642e-19
4.50035e-19
8.16904e-19
1.42663e-18
2.39753e-18
3.90324e-18
6.17078e-18
9.49165e-18
1.42269e-17
2.08067e-17
2.97231e-17
4.15131e-17
5.67984e-17
7.60888e-17
9.9823e-17
1.28492e-16
1.62139e-16
2.00829e-16
2.44029e-16
2.91194e-16
3.41444e-16
3.92935e-16
4.4417e-16
4.93348e-16
5.38129e-16
5.76519e-16
6.06713e-16
6.27026e-16
6.3623e-16
6.33678e-16
6.19306e-16
5.93541e-16
5.5775e-16
5.13634e-16
4.63107e-16
4.087e-16
3.52551e-16
2.96404e-16
2.42282e-16
1.91843e-16
1.46621e-16
1.0771e-16
7.54591e-17
4.9996e-17
3.09889e-17
1.77005e-17
9.09491e-18
4.05773e-18
1.48527e-18
4.04218e-19
6.83701e-20
2.49796e-21
1.84707e-22
9.61824e-22
3.82699e-21
1.27584e-20
3.54018e-20
8.4642e-20
1.82268e-19
3.65017e-19
6.89892e-19
1.24456e-18
2.1616e-18
3.61508e-18
5.85986e-18
9.22769e-18
1.41431e-17
2.11298e-17
3.08099e-17
4.3892e-17
6.11456e-17
8.34603e-17
1.11556e-16
1.46047e-16
1.87619e-16
2.36304e-16
2.92167e-16
3.54409e-16
4.22215e-16
4.94293e-16
5.67974e-16
6.41094e-16
7.11069e-16
7.74555e-16
8.28718e-16
8.71007e-16
8.99053e-16
9.11158e-16
9.06452e-16
8.84902e-16
8.4717e-16
7.95261e-16
7.3163e-16
6.59031e-16
5.81083e-16
5.00822e-16
4.20724e-16
3.43646e-16
2.71924e-16
2.07708e-16
1.52521e-16
1.06825e-16
7.07769e-17
4.38836e-17
2.50858e-17
1.29087e-17
5.77382e-18
2.12219e-18
5.81478e-19
9.94399e-20
3.67783e-21
3.64901e-22
1.66287e-21
6.31797e-21
2.03854e-20
5.5214e-20
1.30144e-19
2.77796e-19
5.52562e-19
1.03839e-18
1.86392e-18
3.22299e-18
5.36894e-18
8.67188e-18
1.36119e-17
2.08012e-17
3.0993e-17
4.50788e-17
6.407e-17
8.90613e-17
1.21314e-16
1.61838e-16
2.11484e-16
2.71202e-16
3.40999e-16
4.20925e-16
5.09793e-16
6.064e-16
7.08865e-16
8.13355e-16
9.16773e-16
1.01544e-15
1.10461e-15
1.1803e-15
1.23894e-15
1.27722e-15
1.29283e-15
1.28461e-15
1.25259e-15
1.19781e-15
1.12317e-15
1.03219e-15
9.28793e-16
8.18114e-16
7.04429e-16
5.91213e-16
4.82471e-16
3.81458e-16
2.91156e-16
2.13661e-16
1.49572e-16
9.90693e-17
6.14244e-17
3.51262e-17
1.80928e-17
8.10762e-18
2.98976e-18
8.23788e-19
1.42211e-19
5.31636e-21
1.38147e-21
2.88549e-21
1.01269e-20
3.17373e-20
8.42957e-20
1.96451e-19
4.16423e-19
8.23937e-19
1.54148e-18
2.75618e-18
4.74917e-18
7.88649e-18
1.27019e-17
1.98854e-17
3.03149e-17
4.50669e-17
6.54115e-17
9.27851e-17
1.28736e-16
1.75043e-16
2.33114e-16
3.04125e-16
3.89379e-16
4.88832e-16
6.02495e-16
7.28621e-16
8.65443e-16
1.01024e-15
1.15753e-15
1.30292e-15
1.44118e-15
1.56564e-15
1.67072e-15
1.75144e-15
1.80325e-15
1.82298e-15
1.80914e-15
1.76189e-15
1.68281e-15
1.57609e-15
1.44675e-15
1.30036e-15
1.14415e-15
9.84105e-16
8.25077e-16
6.72638e-16
5.31296e-16
4.05156e-16
2.97074e-16
2.07819e-16
1.37575e-16
8.52722e-17
4.87653e-17
2.51313e-17
1.12763e-17
4.16871e-18
1.15388e-18
2.00794e-19
7.57595e-21
7.0503e-19
6.96283e-19
6.87497e-19
6.79014e-19
6.70981e-19
6.63472e-19
6.56512e-19
6.501e-19
6.44219e-19
6.3881e-19
6.33482e-19
6.28222e-19
6.23018e-19
6.17852e-19
6.127e-19
6.0753e-19
6.02261e-19
5.96182e-19
5.80179e-19
4.6964e-19
7.11089e-19
6.98464e-19
6.85496e-19
6.73176e-19
6.61849e-19
6.51651e-19
6.42619e-19
6.3474e-19
6.27968e-19
6.22225e-19
6.17013e-19
6.12149e-19
6.07597e-19
6.03315e-19
5.99238e-19
5.95269e-19
5.9121e-19
5.85815e-19
5.6503e-19
4.41581e-19
7.18063e-19
7.00995e-19
6.83362e-19
6.66775e-19
6.51765e-19
6.38536e-19
6.27142e-19
6.17555e-19
6.09693e-19
6.03404e-19
5.98126e-19
5.93527e-19
5.89556e-19
5.86156e-19
5.83238e-19
5.80663e-19
5.78123e-19
5.73834e-19
5.49866e-19
4.18806e-19
7.24831e-19
7.03259e-19
6.80799e-19
6.59756e-19
6.40851e-19
6.2438e-19
6.10454e-19
5.99063e-19
5.90107e-19
5.83375e-19
5.78186e-19
5.74056e-19
5.70866e-19
5.68504e-19
5.66851e-19
5.65741e-19
5.64787e-19
5.61634e-19
5.34945e-19
3.99874e-19
7.31476e-19
7.05423e-19
6.78147e-19
6.52614e-19
6.29695e-19
6.09811e-19
5.93174e-19
5.79838e-19
5.69712e-19
5.62536e-19
5.57521e-19
5.54029e-19
5.51843e-19
5.50754e-19
5.5056e-19
5.51039e-19
5.51691e-19
5.4952e-19
5.20004e-19
3.83098e-19
7.38107e-19
7.07722e-19
6.75799e-19
6.45843e-19
6.18848e-19
5.954e-19
5.75874e-19
5.60441e-19
5.49063e-19
5.4144e-19
5.36667e-19
5.3394e-19
5.32919e-19
5.33269e-19
5.34676e-19
5.36819e-19
5.39035e-19
5.37585e-19
5.04836e-19
3.67637e-19
7.44795e-19
7.10349e-19
6.74076e-19
6.3984e-19
6.08748e-19
5.8161e-19
5.59022e-19
5.41335e-19
5.28611e-19
5.20537e-19
5.16087e-19
5.14253e-19
5.14532e-19
5.1643e-19
5.19498e-19
5.23294e-19
5.26952e-19
5.25845e-19
4.89287e-19
3.53175e-19
7.51585e-19
7.13458e-19
6.73235e-19
6.34927e-19
5.99794e-19
5.68911e-19
5.43125e-19
5.23023e-19
5.08845e-19
5.00307e-19
4.96263e-19
4.9545e-19
4.97132e-19
5.0062e-19
5.05319e-19
5.1066e-19
5.15536e-19
5.14249e-19
4.73253e-19
3.3971e-19
7.58513e-19
7.17174e-19
6.73476e-19
6.31396e-19
5.92404e-19
5.57845e-19
5.28806e-19
5.06152e-19
4.90393e-19
4.81352e-19
4.77784e-19
4.78087e-19
4.8121e-19
4.86234e-19
4.92421e-19
4.99083e-19
5.04842e-19
5.02667e-19
4.56694e-19
3.27511e-19
7.65604e-19
7.21593e-19
6.74971e-19
6.29545e-19
5.87056e-19
5.49073e-19
5.16862e-19
4.91567e-19
4.74078e-19
4.64453e-19
4.6138e-19
4.62812e-19
4.6729e-19
4.73652e-19
4.81044e-19
4.88681e-19
4.94861e-19
4.90867e-19
4.39695e-19
3.17185e-19
7.72876e-19
7.26796e-19
6.7788e-19
6.297e-19
5.84298e-19
5.43378e-19
5.08281e-19
4.80371e-19
4.60987e-19
4.50606e-19
4.47906e-19
4.50293e-19
4.55839e-19
4.63165e-19
4.71342e-19
4.79492e-19
4.85486e-19
4.78494e-19
4.22527e-19
3.09473e-19
7.8034e-19
7.32853e-19
6.82376e-19
6.32239e-19
5.84754e-19
5.41653e-19
5.04249e-19
4.73987e-19
4.52562e-19
4.41017e-19
4.38192e-19
4.40991e-19
4.47054e-19
4.5482e-19
4.63285e-19
4.71423e-19
4.76454e-19
4.65132e-19
4.06055e-19
3.06825e-19
7.87995e-19
7.39844e-19
6.88664e-19
6.37586e-19
5.89097e-19
5.44864e-19
5.06099e-19
4.74161e-19
4.50747e-19
4.37188e-19
4.32828e-19
4.3481e-19
4.40475e-19
4.48065e-19
4.56434e-19
4.64163e-19
4.67269e-19
4.50615e-19
3.92269e-19
3.14204e-19
7.96248e-19
7.48712e-19
6.98014e-19
6.47231e-19
5.98938e-19
5.54684e-19
5.15507e-19
4.825e-19
4.57027e-19
4.40416e-19
4.32879e-19
4.32658e-19
4.3672e-19
4.43094e-19
4.50372e-19
4.56786e-19
4.57202e-19
4.3596e-19
3.85081e-19
3.39293e-19
8.05685e-19
7.60044e-19
7.11144e-19
6.62057e-19
6.15344e-19
5.72403e-19
5.34043e-19
5.00979e-19
4.74024e-19
4.54074e-19
4.41787e-19
4.37482e-19
4.38226e-19
4.41809e-19
4.46507e-19
4.50014e-19
4.46726e-19
4.26619e-19
3.95012e-19
3.92064e-19
8.16464e-19
7.74226e-19
7.28719e-19
6.82998e-19
6.39513e-19
5.99501e-19
5.63563e-19
5.32061e-19
5.053e-19
4.83614e-19
4.67424e-19
4.57278e-19
4.52955e-19
4.51896e-19
4.5234e-19
4.52181e-19
4.48037e-19
4.37864e-19
4.35046e-19
4.87844e-19
8.28745e-19
7.91704e-19
7.5153e-19
7.11178e-19
6.72871e-19
6.37694e-19
6.061e-19
5.78229e-19
5.54058e-19
5.33492e-19
5.16447e-19
5.02932e-19
4.94693e-19
4.89614e-19
4.86535e-19
4.84739e-19
4.84412e-19
4.90276e-19
5.23518e-19
6.47255e-19
8.42682e-19
8.12972e-19
7.80505e-19
7.47925e-19
7.17092e-19
6.88928e-19
6.63808e-19
6.41791e-19
6.22741e-19
6.06415e-19
5.92525e-19
5.80819e-19
5.72516e-19
5.67763e-19
5.65812e-19
5.67558e-19
5.7654e-19
6.03418e-19
6.79082e-19
8.89994e-19
8.58366e-19
8.38514e-19
8.16664e-19
7.94791e-19
7.74209e-19
7.55632e-19
7.39399e-19
7.25603e-19
7.14176e-19
7.04958e-19
6.97754e-19
6.92407e-19
6.889e-19
6.89899e-19
6.95217e-19
7.07132e-19
7.31825e-19
7.84739e-19
9.06695e-19
1.21639e-18
8.75749e-19
8.68646e-19
8.60916e-19
8.53402e-19
8.46702e-19
8.41226e-19
8.37232e-19
8.34868e-19
8.34208e-19
8.35289e-19
8.38152e-19
8.4291e-19
8.49854e-19
8.60382e-19
8.77714e-19
9.04509e-19
9.48441e-19
1.02734e-18
1.18734e-18
1.58246e-18
8.94347e-19
9.02366e-19
9.12124e-19
9.22644e-19
9.34033e-19
9.46456e-19
9.60075e-19
9.75061e-19
9.91602e-19
1.00992e-18
1.03027e-18
1.05299e-18
1.07852e-18
1.10746e-18
1.14228e-18
1.18748e-18
1.25007e-18
1.34544e-18
1.51421e-18
1.94331e-18
1.47778e-20
5.34627e-21
1.56838e-20
4.78904e-20
1.25351e-19
2.89741e-19
6.11137e-19
1.20467e-18
2.24657e-18
4.00539e-18
6.88359e-18
1.14035e-17
1.83256e-17
2.86302e-17
4.35613e-17
6.46401e-17
9.36565e-17
1.32628e-16
1.83719e-16
2.49412e-16
3.3165e-16
4.32033e-16
5.52334e-16
6.92413e-16
8.52202e-16
1.02916e-15
1.22072e-15
1.42298e-15
1.62824e-15
1.83026e-15
2.02176e-15
2.19343e-15
2.33756e-15
2.44727e-15
2.51638e-15
2.54063e-15
2.51812e-15
2.44925e-15
2.3364e-15
2.18554e-15
2.00376e-15
1.79886e-15
1.58091e-15
1.35821e-15
1.13743e-15
9.2625e-16
7.30824e-16
5.56737e-16
4.07824e-16
2.85044e-16
1.88556e-16
1.16806e-16
6.67802e-17
3.44198e-17
1.54559e-17
5.72421e-18
1.59009e-18
2.78526e-19
1.06058e-20
3.20024e-20
9.46831e-21
2.38893e-20
7.11832e-20
1.83933e-19
4.22031e-19
8.86149e-19
1.74085e-18
3.2371e-18
5.75649e-18
9.86946e-18
1.63142e-17
2.61632e-17
4.07958e-17
6.19574e-17
9.17767e-17
1.32751e-16
1.87684e-16
2.59574e-16
3.51848e-16
4.67154e-16
6.07651e-16
7.75718e-16
9.71048e-16
1.19343e-15
1.43921e-15
1.7047e-15
1.98438e-15
2.26748e-15
2.54532e-15
2.80778e-15
3.04208e-15
3.23761e-15
3.38505e-15
3.47604e-15
3.50493e-15
3.46938e-15
3.37018e-15
3.21081e-15
2.99976e-15
2.74688e-15
2.46301e-15
2.16204e-15
1.8553e-15
1.55193e-15
1.26237e-15
9.94931e-16
7.57132e-16
5.5407e-16
3.86908e-16
2.55738e-16
1.58327e-16
9.04861e-17
4.66395e-17
2.09559e-17
7.77342e-18
2.16622e-18
3.81709e-19
1.46382e-20
4.95243e-20
1.55437e-20
3.59365e-20
1.04862e-19
2.67996e-19
6.11105e-19
1.27828e-18
2.50411e-18
4.64526e-18
8.2428e-18
1.41038e-17
2.32697e-17
3.72512e-17
5.7986e-17
8.79198e-17
1.30028e-16
1.87788e-16
2.65096e-16
3.66096e-16
4.95511e-16
6.56949e-16
8.5331e-16
1.08778e-15
1.35977e-15
1.66883e-15
2.0097e-15
2.37713e-15
2.76328e-15
3.15313e-15
3.53463e-15
3.89375e-15
4.21291e-15
4.47762e-15
4.67523e-15
4.79446e-15
4.8279e-15
4.77265e-15
4.63013e-15
4.40551e-15
4.11072e-15
3.75949e-15
3.36682e-15
2.95184e-15
2.53003e-15
2.11385e-15
1.71745e-15
1.35207e-15
1.02779e-15
7.51361e-16
5.24175e-16
3.46175e-16
2.1417e-16
1.22346e-16
6.30545e-17
2.83439e-17
1.05278e-17
2.94203e-18
5.21209e-19
2.01176e-20
6.64668e-20
2.39285e-20
5.34824e-20
1.53413e-19
3.88387e-19
8.80922e-19
1.83671e-18
3.58954e-18
6.64547e-18
1.17706e-17
2.01054e-17
3.31175e-17
5.29325e-17
8.22697e-17
1.24553e-16
1.83936e-16
2.65261e-16
3.73928e-16
5.15663e-16
6.96968e-16
9.22746e-16
1.19688e-15
1.52362e-15
1.90194e-15
2.33098e-15
2.80319e-15
3.31107e-15
3.84355e-15
4.3797e-15
4.90279e-15
5.39341e-15
5.82742e-15
6.18508e-15
6.44919e-15
6.60467e-15
6.64175e-15
6.55697e-15
6.35273e-15
6.03662e-15
5.62541e-15
5.13822e-15
4.59577e-15
4.02436e-15
3.4451e-15
2.87492e-15
2.33304e-15
1.83457e-15
1.393e-15
1.01726e-15
7.08971e-16
4.67801e-16
2.89201e-16
1.65121e-16
8.5083e-17
3.82576e-17
1.4226e-17
3.98547e-18
7.09536e-19
2.75498e-20
8.24008e-20
3.51771e-20
7.89141e-20
2.23285e-19
5.60612e-19
1.26562e-18
2.63135e-18
5.1321e-18
9.48509e-18
1.6774e-17
2.86089e-17
4.70564e-17
7.51048e-17
1.16568e-16
1.76235e-16
2.599e-16
3.74298e-16
5.26912e-16
7.2564e-16
9.79425e-16
1.29492e-15
1.6773e-15
2.13223e-15
2.65796e-15
3.25298e-15
3.9065e-15
4.60778e-15
5.34122e-15
6.07771e-15
6.794e-15
7.46333e-15
8.05257e-15
8.53483e-15
8.88687e-15
9.0885e-15
9.12695e-15
8.99816e-15
8.70608e-15
8.2618e-15
7.68889e-15
7.01387e-15
6.26538e-15
5.4795e-15
4.68497e-15
3.9048e-15
3.16497e-15
2.4858e-15
1.88533e-15
1.37529e-15
9.57506e-16
6.31205e-16
3.89912e-16
2.22493e-16
1.14614e-16
5.15463e-17
1.91858e-17
5.38722e-18
9.63434e-19
3.76141e-20
9.72479e-20
5.01948e-20
1.15708e-19
3.23761e-19
8.06853e-19
1.81384e-18
3.76165e-18
7.32349e-18
1.35151e-17
2.38682e-17
4.06545e-17
6.67823e-17
1.0645e-16
1.65004e-16
2.49138e-16
3.66932e-16
5.27744e-16
7.41935e-16
1.02039e-15
1.37539e-15
1.81594e-15
2.34894e-15
2.98187e-15
3.71188e-15
4.53642e-15
5.44005e-15
6.40748e-15
7.41671e-15
8.42727e-15
9.40695e-15
1.03188e-14
1.11175e-14
1.17665e-14
1.22344e-14
1.24943e-14
1.25295e-14
1.23355e-14
1.19186e-14
1.12949e-14
1.04976e-14
9.56332e-15
8.53161e-15
7.45193e-15
6.36336e-15
5.29707e-15
4.28816e-15
3.3639e-15
2.54833e-15
1.85685e-15
1.29142e-15
8.50508e-16
5.24949e-16
2.99362e-16
1.54159e-16
6.93396e-17
2.58304e-17
7.26808e-18
1.30528e-18
5.12222e-20
1.11339e-19
7.04709e-20
1.68947e-19
4.68229e-19
1.15888e-18
2.59499e-18
5.36909e-18
1.0436e-17
1.92334e-17
3.39253e-17
5.77154e-17
9.46947e-17
1.5076e-16
2.334e-16
3.51971e-16
5.17728e-16
7.43668e-16
1.04412e-15
1.43409e-15
1.9304e-15
2.54523e-15
3.28772e-15
4.16773e-15
5.18071e-15
6.32244e-15
7.57089e-15
8.90432e-15
1.02917e-14
1.16769e-14
1.30152e-14
1.42558e-14
1.53367e-14
1.62083e-14
1.68283e-14
1.71609e-14
1.71845e-14
1.68944e-14
1.63004e-14
1.54259e-14
1.43173e-14
1.30255e-14
1.16048e-14
1.0123e-14
8.63312e-15
7.17736e-15
5.80305e-15
4.54668e-15
3.44024e-15
2.50389e-15
1.73955e-15
1.14451e-15
7.05812e-16
4.02237e-16
2.07057e-16
9.31375e-17
3.47217e-17
9.78881e-18
1.76494e-18
6.95948e-20
1.25463e-19
9.84921e-20
2.46005e-19
6.76008e-19
1.66221e-18
3.70807e-18
7.65503e-18
1.48566e-17
2.73468e-17
4.8182e-17
8.18785e-17
1.3419e-16
2.13394e-16
3.29979e-16
4.97013e-16
7.3017e-16
1.04749e-15
1.46878e-15
2.01467e-15
2.70823e-15
3.56586e-15
4.59963e-15
5.82248e-15
7.22721e-15
8.80707e-15
1.05306e-14
1.2367e-14
1.42725e-14
1.61692e-14
1.79953e-14
1.9681e-14
2.11415e-14
2.23096e-14
2.31284e-14
2.35505e-14
2.35483e-14
2.31171e-14
2.22721e-14
2.10473e-14
1.95073e-14
1.77228e-14
1.57684e-14
1.37367e-14
1.16996e-14
9.71415e-15
7.84409e-15
6.13816e-15
4.63881e-15
3.37232e-15
2.34031e-15
1.53823e-15
9.47785e-16
5.39763e-16
2.77736e-16
1.2493e-16
4.66056e-17
1.3163e-17
2.38223e-18
9.43655e-20
1.40978e-19
1.3814e-19
3.57703e-19
9.74992e-19
2.38206e-18
5.29436e-18
1.09061e-17
2.11353e-17
3.88587e-17
6.83919e-17
1.16101e-16
1.90073e-16
3.01931e-16
4.66354e-16
7.01588e-16
1.02945e-15
1.47497e-15
2.06551e-15
2.82939e-15
3.79821e-15
4.99401e-15
6.43265e-15
8.131e-15
1.00778e-14
1.22625e-14
1.46403e-14
1.71672e-14
1.97819e-14
2.23764e-14
2.48654e-14
2.71526e-14
2.91227e-14
3.06847e-14
3.17624e-14
3.2293e-14
3.22415e-14
3.16039e-14
3.04039e-14
2.869e-14
2.6553e-14
2.409e-14
2.14037e-14
1.86207e-14
1.58382e-14
1.31331e-14
1.05912e-14
8.27727e-15
6.24772e-15
4.53662e-15
3.1448e-15
2.06489e-15
1.27114e-15
7.23402e-16
3.72061e-16
1.67354e-16
6.24706e-17
1.76743e-17
3.21012e-18
1.27716e-19
1.60184e-19
1.95194e-19
5.1996e-19
1.40544e-18
3.41187e-18
7.55547e-18
1.55304e-17
3.00537e-17
5.51938e-17
9.7043e-17
1.64572e-16
2.69152e-16
4.27089e-16
6.5893e-16
9.90143e-16
1.45108e-15
2.07644e-15
2.90399e-15
3.9726e-15
5.32547e-15
6.99215e-15
8.99335e-15
1.13509e-14
1.40476e-14
1.70668e-14
2.03448e-14
2.38192e-14
2.7404e-14
3.09494e-14
3.43377e-14
3.74369e-14
4.00899e-14
4.21739e-14
4.35869e-14
4.42462e-14
4.41075e-14
4.31695e-14
4.14677e-14
3.9072e-14
3.61089e-14
3.27125e-14
2.90238e-14
2.52152e-14
2.14182e-14
1.77363e-14
1.42845e-14
1.11494e-14
8.40508e-15
6.09585e-15
4.22088e-15
2.76856e-15
1.70277e-15
9.6833e-16
4.978e-16
2.23896e-16
8.36251e-17
2.36983e-17
4.31904e-18
1.72559e-19
1.86932e-19
2.78381e-19
7.56042e-19
2.02541e-18
4.88547e-18
1.0779e-17
2.21089e-17
4.27236e-17
7.83758e-17
1.37666e-16
2.33235e-16
3.81064e-16
6.04033e-16
9.30894e-16
1.39718e-15
2.04511e-15
2.92274e-15
4.08218e-15
5.57671e-15
7.46532e-15
9.78748e-15
1.25701e-14
1.58413e-14
1.95747e-14
2.37446e-14
2.82605e-14
3.30341e-14
3.79443e-14
4.27843e-14
4.73914e-14
5.1585e-14
5.51513e-14
5.79249e-14
5.97697e-14
6.05773e-14
6.02922e-14
5.89181e-14
5.65082e-14
5.31627e-14
4.90578e-14
4.43784e-14
3.93176e-14
3.41102e-14
2.89338e-14
2.39273e-14
1.92449e-14
1.50014e-14
1.12947e-14
8.18162e-15
5.65859e-15
3.70767e-15
2.27824e-15
1.29462e-15
6.65215e-16
2.99167e-16
1.11798e-16
3.17326e-17
5.80249e-18
2.32773e-19
2.26683e-19
4.00779e-19
1.09985e-18
2.91844e-18
6.99427e-18
1.53753e-17
3.1469e-17
6.07258e-17
1.1128e-16
1.95272e-16
3.30514e-16
5.39466e-16
8.54228e-16
1.31502e-15
1.97141e-15
2.88209e-15
4.11361e-15
5.73776e-15
7.82754e-15
1.04633e-14
1.36978e-14
1.75655e-14
2.21024e-14
2.72683e-14
3.30242e-14
3.92413e-14
4.57946e-14
5.25145e-14
5.91149e-14
6.53719e-14
7.1038e-14
7.58231e-14
7.9505e-14
8.19023e-14
8.28736e-14
8.23505e-14
8.03453e-14
7.69375e-14
7.22701e-14
6.65884e-14
6.01468e-14
5.32097e-14
4.60964e-14
3.9046e-14
3.22451e-14
2.58998e-14
2.0162e-14
1.51606e-14
1.09686e-14
7.57729e-15
4.95954e-15
3.0446e-15
1.72879e-15
8.87854e-16
3.99248e-16
1.49274e-16
4.24345e-17
7.78439e-18
3.13516e-19
2.87309e-19
5.8176e-19
1.60052e-18
4.20444e-18
1.00119e-17
2.19294e-17
4.47887e-17
8.63093e-17
1.57994e-16
2.76979e-16
4.68365e-16
7.63718e-16
1.20807e-15
1.85767e-15
2.78165e-15
4.06157e-15
5.78951e-15
8.06435e-15
1.09859e-14
1.46637e-14
1.91675e-14
2.45417e-14
3.08313e-14
3.79758e-14
4.59163e-14
5.44697e-14
6.34593e-14
7.26476e-14
8.16393e-14
9.01266e-14
9.77709e-14
1.04179e-13
1.09053e-13
1.12152e-13
1.13292e-13
1.12391e-13
1.09475e-13
1.04663e-13
9.81576e-14
9.03001e-14
8.14405e-14
7.19397e-14
6.22317e-14
5.2638e-14
4.34086e-14
3.48183e-14
2.70683e-14
2.03272e-14
1.46882e-14
1.01349e-14
6.62639e-15
4.06396e-15
2.30581e-15
1.18358e-15
5.32158e-16
1.99062e-16
5.66721e-17
1.04288e-17
4.21651e-19
3.80828e-19
8.49689e-19
2.32884e-18
6.05504e-18
1.43288e-17
3.12753e-17
6.3746e-17
1.22675e-16
2.24329e-16
3.92902e-16
6.63765e-16
1.08128e-15
1.70861e-15
2.62444e-15
3.92513e-15
5.72398e-15
8.14836e-15
1.13343e-14
1.54182e-14
2.05489e-14
2.68186e-14
3.42833e-14
4.29993e-14
5.28756e-14
6.38235e-14
7.55834e-14
8.79055e-14
1.00458e-13
1.12694e-13
1.24192e-13
1.34489e-13
1.43053e-13
1.49485e-13
1.53468e-13
1.54763e-13
1.53272e-13
1.49046e-13
1.42259e-13
1.33201e-13
1.22343e-13
1.10168e-13
9.71677e-14
8.39304e-14
7.08884e-14
5.83753e-14
4.67576e-14
3.63003e-14
2.72241e-14
1.9647e-14
1.35403e-14
8.84318e-15
5.41825e-15
3.07178e-15
1.57591e-15
7.0845e-16
2.65127e-16
7.55898e-17
1.39525e-17
5.66275e-19
5.25002e-19
1.24543e-18
3.38596e-18
8.71508e-18
2.05019e-17
4.46019e-17
9.0732e-17
1.74382e-16
3.18559e-16
5.57424e-16
9.40827e-16
1.53112e-15
2.41689e-15
3.70819e-15
5.53931e-15
8.0676e-15
1.14691e-14
1.59308e-14
2.16388e-14
2.87951e-14
3.7521e-14
4.78865e-14
5.99602e-14
7.36063e-14
8.86923e-14
1.0485e-13
1.21727e-13
1.38858e-13
1.55492e-13
1.71048e-13
1.84896e-13
1.96317e-13
2.04778e-13
2.09862e-13
2.11261e-13
2.08862e-13
2.02757e-13
1.93198e-13
1.80595e-13
1.65606e-13
1.48889e-13
1.31115e-13
1.13082e-13
9.53681e-14
7.84197e-14
6.27234e-14
4.86277e-14
3.64204e-14
2.62502e-14
1.80692e-14
1.17879e-14
7.21538e-15
4.08735e-15
2.09577e-15
9.41997e-16
3.52681e-16
1.00694e-16
1.86419e-17
7.59441e-19
7.45082e-19
1.82655e-18
4.91517e-18
1.25329e-17
2.93253e-17
6.36051e-17
1.29156e-16
2.47926e-16
4.52463e-16
7.91011e-16
1.33384e-15
2.16857e-15
3.41951e-15
5.24049e-15
7.8187e-15
1.13725e-14
1.61451e-14
2.23933e-14
3.03708e-14
4.0351e-14
5.24928e-14
6.68821e-14
8.36007e-14
1.02447e-13
1.23223e-13
1.45408e-13
1.68505e-13
1.91864e-13
2.14451e-13
2.35469e-13
2.54061e-13
2.69257e-13
2.80349e-13
2.86785e-13
2.88178e-13
2.84399e-13
2.75602e-13
2.62155e-13
2.44639e-13
2.23963e-13
2.01028e-13
1.76749e-13
1.52205e-13
1.2817e-13
1.05236e-13
8.40503e-14
6.50701e-14
4.8669e-14
3.5033e-14
2.40853e-14
1.56949e-14
9.59729e-15
5.43221e-15
2.78379e-15
1.25101e-15
4.68569e-16
1.33966e-16
2.48744e-17
1.01711e-18
1.0742e-18
2.67156e-18
7.11778e-18
1.80038e-17
4.19317e-17
9.0706e-17
1.83885e-16
3.52576e-16
6.42835e-16
1.12281e-15
1.89158e-15
3.07232e-15
4.83938e-15
7.40788e-15
1.10386e-14
1.60345e-14
2.27315e-14
3.14817e-14
4.26304e-14
5.65473e-14
7.34392e-14
9.34087e-14
1.16551e-13
1.42567e-13
1.71165e-13
2.01605e-13
2.33189e-13
2.6501e-13
2.95644e-13
3.24002e-13
3.48918e-13
3.69087e-13
3.8357e-13
3.91645e-13
3.92821e-13
3.86964e-13
3.74322e-13
3.55429e-13
3.31106e-13
3.02609e-13
2.71172e-13
2.38036e-13
2.04659e-13
1.72076e-13
1.41073e-13
1.12508e-13
8.69766e-14
6.49642e-14
4.67013e-14
3.20674e-14
2.08725e-14
1.27505e-14
7.211e-15
3.69322e-15
1.65938e-15
6.21769e-16
1.78007e-16
3.31468e-17
1.36035e-18
1.54894e-18
3.88323e-18
1.02755e-17
2.5833e-17
5.99406e-17
1.29368e-16
2.61876e-16
5.0157e-16
9.13643e-16
1.5944e-15
2.68353e-15
4.35426e-15
6.85116e-15
1.0475e-14
1.55891e-14
2.26137e-14
3.20119e-14
4.42667e-14
5.98471e-14
7.92519e-14
1.02748e-13
1.30455e-13
1.62479e-13
1.98376e-13
2.37717e-13
2.79456e-13
3.2261e-13
3.65916e-13
4.07416e-13
4.45622e-13
4.78951e-13
5.05651e-13
5.24479e-13
5.34496e-13
5.35085e-13
5.26124e-13
5.08002e-13
4.8149e-13
4.47745e-13
4.08502e-13
3.65446e-13
3.20261e-13
2.74914e-13
2.30785e-13
1.88915e-13
1.50437e-13
1.1613e-13
8.66184e-14
6.21852e-14
4.26458e-14
2.77258e-14
1.69197e-14
9.56086e-15
4.89387e-15
2.19838e-15
8.24041e-16
2.36228e-16
4.41124e-17
1.817e-18
2.19534e-18
5.59009e-18
1.47854e-17
3.70319e-17
8.56771e-17
1.84556e-16
3.73092e-16
7.13843e-16
1.29913e-15
2.26508e-15
3.80876e-15
6.17376e-15
9.70325e-15
1.48178e-14
2.20233e-14
3.19023e-14
4.50937e-14
6.22585e-14
8.40327e-14
1.11088e-13
1.43766e-13
1.822e-13
2.26497e-13
2.76008e-13
3.30097e-13
3.8729e-13
4.46205e-13
5.05081e-13
5.61232e-13
6.12626e-13
6.5712e-13
6.92366e-13
7.16724e-13
7.28978e-13
7.28366e-13
7.14799e-13
6.8888e-13
6.51721e-13
6.04947e-13
5.50952e-13
4.92032e-13
4.30471e-13
3.68917e-13
3.09206e-13
2.52715e-13
2.00938e-13
1.54885e-13
1.15361e-13
8.27086e-14
5.66482e-14
3.67863e-14
2.24256e-14
1.26613e-14
6.47701e-15
2.9089e-15
1.09076e-15
3.13097e-16
5.86287e-17
2.42371e-18
3.01042e-18
7.9521e-18
2.12227e-17
5.30681e-17
1.22496e-16
2.6341e-16
5.31825e-16
1.01652e-15
1.84829e-15
3.21966e-15
5.40868e-15
8.75802e-15
1.37493e-14
2.09704e-14
3.1126e-14
4.50233e-14
6.35426e-14
8.75877e-14
1.1802e-13
1.55741e-13
2.01183e-13
2.54484e-13
3.15741e-13
3.83998e-13
4.58324e-13
5.36637e-13
6.17e-13
6.96961e-13
7.72838e-13
8.41862e-13
9.01135e-13
9.47518e-13
9.78858e-13
9.93588e-13
9.90778e-13
9.70418e-13
9.33431e-13
8.81409e-13
8.16636e-13
7.42405e-13
6.61844e-13
5.78044e-13
4.94567e-13
4.13847e-13
3.37704e-13
2.681e-13
2.06346e-13
1.53469e-13
1.0988e-13
7.5161e-14
4.87504e-14
2.9688e-14
1.67472e-14
8.56193e-15
3.84436e-15
1.44203e-15
4.14453e-16
7.78202e-17
3.22874e-18
3.91357e-18
1.12596e-17
3.04613e-17
7.61002e-17
1.75262e-16
3.76221e-16
7.58619e-16
1.44852e-15
2.63133e-15
4.57943e-15
7.68538e-15
1.24313e-14
1.94932e-14
2.96933e-14
4.40123e-14
6.35687e-14
8.95742e-14
1.23264e-13
1.658e-13
2.18391e-13
2.81577e-13
3.55483e-13
4.40164e-13
5.34225e-13
6.36302e-13
7.43459e-13
8.52982e-13
9.61462e-13
1.06386e-12
1.1564e-12
1.23519e-12
1.29602e-12
1.33609e-12
1.35339e-12
1.34681e-12
1.31648e-12
1.26381e-12
1.19107e-12
1.10145e-12
9.99482e-13
8.89427e-13
7.75453e-13
6.62345e-13
5.53328e-13
4.50796e-13
3.57322e-13
2.746e-13
2.03935e-13
1.4581e-13
9.96082e-14
6.45297e-14
3.92556e-14
2.21249e-14
1.13042e-14
5.07442e-15
1.90405e-15
5.47926e-16
1.03159e-16
4.29551e-18
5.15486e-18
1.61096e-17
4.39312e-17
1.09309e-16
2.51041e-16
5.37858e-16
1.08307e-15
2.06579e-15
3.74904e-15
6.51842e-15
1.09284e-14
1.76577e-14
2.76554e-14
4.20711e-14
6.22704e-14
8.98022e-14
1.26333e-13
1.73548e-13
2.33014e-13
3.06344e-13
3.94203e-13
4.96666e-13
6.13704e-13
7.43277e-13
8.83398e-13
1.02993e-12
1.17907e-12
1.3261e-12
1.4641e-12
1.58797e-12
1.69245e-12
1.77195e-12
1.82282e-12
1.84251e-12
1.82972e-12
1.78484e-12
1.70998e-12
1.60836e-12
1.48447e-12
1.34452e-12
1.19428e-12
1.03939e-12
8.86258e-13
7.39148e-13
6.012e-13
4.75784e-13
3.65075e-13
2.70727e-13
1.93295e-13
1.31873e-13
8.53284e-14
5.18525e-14
2.91988e-14
1.49092e-14
6.69095e-15
2.51141e-15
7.23596e-16
1.36593e-16
5.70687e-18
7.03651e-18
2.32268e-17
6.34474e-17
1.57272e-16
3.60054e-16
7.6978e-16
1.54779e-15
2.94882e-15
5.34621e-15
9.28621e-15
1.55525e-14
2.51008e-14
3.92642e-14
5.96505e-14
8.81606e-14
1.26939e-13
1.78276e-13
2.44467e-13
3.27619e-13
4.29879e-13
5.52045e-13
6.94086e-13
8.5581e-13
1.03424e-12
1.22649e-12
1.42674e-12
1.62966e-12
1.82871e-12
2.01445e-12
2.17996e-12
2.31815e-12
2.42165e-12
2.48569e-12
2.50708e-12
2.48434e-12
2.41831e-12
2.3121e-12
2.17031e-12
1.99918e-12
1.80723e-12
1.6023e-12
1.39196e-12
1.18481e-12
9.86462e-13
8.01028e-13
6.32905e-13
4.84879e-13
3.59033e-13
2.5598e-13
1.74406e-13
1.12712e-13
6.84187e-14
3.8493e-14
1.96423e-14
8.81271e-15
3.3088e-15
9.54493e-16
1.8065e-16
7.57454e-18
9.75489e-18
3.34617e-17
9.16711e-17
2.26581e-16
5.17076e-16
1.10299e-15
2.2143e-15
4.21355e-15
7.6311e-15
1.32414e-14
2.21526e-14
3.57112e-14
5.57903e-14
8.46386e-14
1.24902e-13
1.79546e-13
2.51719e-13
3.44541e-13
4.60836e-13
6.03451e-13
7.73316e-13
9.70192e-13
1.1936e-12
1.4392e-12
1.70282e-12
1.97625e-12
2.25209e-12
2.52123e-12
2.77084e-12
2.99153e-12
3.1738e-12
3.3079e-12
3.3877e-12
3.40923e-12
3.37088e-12
3.27422e-12
3.12381e-12
2.92618e-12
2.69001e-12
2.42697e-12
2.14767e-12
1.86229e-12
1.58232e-12
1.31514e-12
1.06612e-12
8.40981e-13
6.4327e-13
4.75592e-13
3.38597e-13
2.30383e-13
1.48703e-13
9.01667e-14
5.06824e-14
2.58454e-14
1.15925e-14
4.35371e-15
1.2574e-15
2.38588e-16
1.00392e-17
1.36562e-17
4.8142e-17
1.32435e-16
3.26735e-16
7.43471e-16
1.58234e-15
3.17145e-15
6.0273e-15
1.0904e-14
1.89003e-14
3.15843e-14
5.08541e-14
7.93421e-14
1.20194e-13
1.77092e-13
2.54137e-13
3.55648e-13
4.85859e-13
6.48546e-13
8.47464e-13
1.08365e-12
1.35649e-12
1.66501e-12
2.00292e-12