/*--------------------------------*- C++ -*----------------------------------*\
| =========                 |                                                 |
| \\      /  F ield         | OpenFOAM: The Open Source CFD Toolbox           |
|  \\    /   O peration     | Version:  3.0.1                                 |
|   \\  /    A nd           | Web:      www.OpenFOAM.org                      |
|    \\/     M anipulation  |                                                 |
\*---------------------------------------------------------------------------*/
FoamFile
{
    version     2.0;
    format      ascii;
    class       volVectorField;
    location    "2200";
    object      U;
}
// * * * * * * * * * * * * * * * * * * * * * * * * * * * * * * * * * * * * * //

dimensions      [0 1 -1 0 0 0 0];

internalField   nonuniform List<vector> 
14431
(
(1.37671 -0.0210607 0)
(2.13073 -0.0149443 0)
(2.49842 -0.00694432 0)
(2.74034 -0.00275086 0)
(2.92462 -0.0029196 0)
(3.0851 -0.00438037 0)
(3.19984 -0.00216297 0)
(3.303 -0.00226964 0)
(3.39658 -0.00205923 -2.17641e-18)
(3.48176 -0.00182402 0)
(3.55925 -0.00159057 0)
(3.62946 -0.00136258 0)
(3.69345 -0.00114861 0)
(3.75189 -0.000949541 1.38932e-18)
(3.8054 -0.000767526 0)
(3.85459 -0.000604395 0)
(3.90002 -0.000461578 0)
(3.94224 -0.000340045 0)
(3.98176 -0.00023983 0)
(4.01922 -0.00016223 0)
(4.05486 -0.000106163 0)
(4.08911 -7.03456e-05 0)
(4.12247 -5.50817e-05 8.08797e-19)
(4.15511 -5.76467e-05 0)
(4.18749 -7.68993e-05 -7.36171e-19)
(4.21971 -0.000110625 0)
(4.25212 -0.000156369 0)
(4.28506 -0.000212372 1.30637e-18)
(4.31839 -0.000275521 0)
(4.35237 -0.000343482 1.21594e-18)
(4.38721 -0.000413808 0)
(4.42282 -0.000483948 0)
(4.45921 -0.0005515 -1.10419e-18)
(4.4965 -0.000614331 0)
(4.53465 -0.000670445 0)
(4.57356 -0.000718007 1.01293e-18)
(4.61313 -0.000755443 -9.87684e-19)
(4.65337 -0.000781619 0)
(4.69412 -0.000795519 0)
(4.73505 -0.000796363 -9.189e-19)
(4.77611 -0.000784052 8.96739e-19)
(4.81722 -0.000758996 8.76646e-19)
(4.85801 -0.000720933 0)
(4.89853 -0.000670903 0)
(4.9389 -0.000610134 8.17013e-19)
(4.97896 -0.000539323 0)
(5.01865 -0.000460776 0)
(5.05779 -0.000377015 0)
(5.09619 -0.000290465 -1.46057e-18)
(5.13403 -0.000206143 0)
(5.17135 -0.000128172 1.37265e-18)
(5.20832 -6.31117e-05 1.33028e-18)
(5.24537 -1.47901e-05 0)
(5.28337 4.39895e-06 0)
(5.3238 9.19544e-07 0)
(5.36911 -5.45953e-05 0)
(5.42377 -0.000116326 4.28144e-18)
(5.49696 -0.000292887 0)
(5.64027 -0.000265466 0)
(1.38539 -0.0300478 3.60495e-17)
(2.12196 -0.0225148 0)
(2.49323 -0.0128208 0)
(2.73797 -0.00706959 0)
(2.92522 -0.00699119 0)
(3.08319 -0.00795377 0)
(3.19936 -0.00493062 0)
(3.30269 -0.00498659 0)
(3.39629 -0.00457198 -2.67299e-18)
(3.4815 -0.0041345 0)
(3.55902 -0.00367305 0)
(3.62925 -0.00320656 0)
(3.69326 -0.0027527 0)
(3.75172 -0.00231923 1.75122e-18)
(3.80525 -0.00191413 0)
(3.85445 -0.00154412 0)
(3.8999 -0.00121464 0)
(3.94214 -0.000929891 0)
(3.98168 -0.000692218 0)
(4.01915 -0.000504338 0)
(4.05481 -0.000366346 0)
(4.08907 -0.000276607 0)
(4.12244 -0.000235002 -3.15348e-18)
(4.1551 -0.000237223 0)
(4.18749 -0.000280276 -9.61749e-19)
(4.21971 -0.000359323 0)
(4.25214 -0.000468975 0)
(4.28508 -0.000604782 1.71825e-18)
(4.31842 -0.000759296 0)
(4.3524 -0.000926781 1.60568e-18)
(4.38724 -0.00110137 0)
(4.42285 -0.00127632 0)
(4.45924 -0.00144557 1.46607e-18)
(4.49653 -0.00160379 0)
(4.53467 -0.00174571 0)
(4.57358 -0.00186652 1.35189e-18)
(4.61315 -0.00196209 1.32029e-18)
(4.65338 -0.00202937 0)
(4.69413 -0.00206555 0)
(4.73505 -0.0020687 1.23396e-18)
(4.77611 -0.00203839 -1.20615e-18)
(4.81721 -0.00197511 1.18089e-18)
(4.858 -0.00187904 0)
(4.89852 -0.0017525 0)
(4.93888 -0.00159799 -1.10645e-18)
(4.97894 -0.00141809 0)
(5.01863 -0.00121811 4.18961e-18)
(5.05777 -0.00100461 0)
(5.09618 -0.000784624 -1.99343e-18)
(5.13402 -0.000569784 -3.85723e-18)
(5.17135 -0.000370887 -1.87886e-18)
(5.20832 -0.000204325 -5.46671e-18)
(5.24538 -8.00512e-05 0)
(5.28339 -2.70346e-05 0)
(5.32383 -3.14281e-05 -6.57307e-18)
(5.36915 -0.000160533 0)
(5.42381 -0.000305747 -5.78524e-18)
(5.49701 -0.000710735 0)
(5.64029 -0.000638797 0)
(1.40335 -0.0325683 -3.57831e-17)
(2.11481 -0.0252635 0)
(2.48696 -0.0167426 0)
(2.73543 -0.0109435 -1.25347e-17)
(2.92567 -0.0103914 0)
(3.0813 -0.0104017 -7.90429e-18)
(3.19875 -0.00736612 0)
(3.30235 -0.00727223 -0.000328194)
(3.39593 -0.00671732 0.000296905)
(3.48112 -0.00614991 -9.63408e-18)
(3.55863 -0.00552625 0)
(3.62887 -0.00488065 0)
(3.6929 -0.00423763 0)
(3.75138 -0.00361344 3.50458e-18)
(3.80493 -0.00302267 -6.54147e-18)
(3.85417 -0.00247741 6.12835e-18)
(3.89965 -0.00198751 0)
(3.94193 -0.00156067 5.43429e-18)
(3.98151 -0.00120204 -5.14413e-18)
(4.01902 -0.000915311 0)
(4.05472 -0.00070259 0)
(4.08902 -0.00056235 0)
(4.12242 -0.000493726 -2.10461e-18)
(4.15511 -0.000491835 0)
(4.18753 -0.000551918 -1.92555e-18)
(4.21978 -0.000667123 0)
(4.25222 -0.00082964 3.55743e-18)
(4.28518 -0.00103264 -3.43975e-18)
(4.31853 -0.00126503 3.3311e-18)
(4.35252 -0.00151811 -3.21399e-18)
(4.38736 -0.00178306 3.10631e-18)
(4.42297 -0.00204939 0)
(4.45935 -0.00230775 0)
(4.49663 -0.00255001 2.851e-18)
(4.53476 -0.00276788 0)
(4.57365 -0.00295383 -2.70477e-18)
(4.6132 -0.00310139 0)
(4.65342 -0.00320567 0)
(4.69414 -0.00326214 5.03251e-18)
(4.73505 -0.00326782 0)
(4.77608 -0.00322185 4.82539e-18)
(4.81716 -0.00312449 -2.36214e-18)
(4.85794 -0.0029767 0)
(4.89844 -0.00278173 -4.53505e-18)
(4.9388 -0.00254289 4.4267e-18)
(4.97885 -0.00226476 4.31087e-18)
(5.01853 -0.001955 -4.19075e-18)
(5.05767 -0.00162383 0)
(5.09608 -0.00128286 3.98822e-18)
(5.13393 -0.000948948 3.8586e-18)
(5.17128 -0.000638994 0)
(5.20827 -0.000378122 3.64555e-18)
(5.24535 -0.000181994 0)
(5.28339 -9.34812e-05 0)
(5.32385 -9.41334e-05 6.57134e-18)
(5.36919 -0.000283077 -1.24793e-17)
(5.42386 -0.000500368 0)
(5.49706 -0.00109949 0)
(5.64025 -0.000989198 0)
(1.42585 -0.032603 0)
(2.11025 -0.0261219 4.0661e-17)
(2.48122 -0.0192707 0)
(2.73308 -0.0138255 1.2432e-17)
(2.92556 -0.0129506 0)
(3.07951 -0.0121611 7.94747e-18)
(3.19803 -0.00938486 0)
(3.30196 -0.0091451 -0.000658131)
(3.39552 -0.00852756 0.000594389)
(3.48066 -0.00789234 -2.84585e-25)
(3.55813 -0.00716494 0)
(3.62836 -0.00639225 0)
(3.6924 -0.00560531 7.54621e-18)
(3.7509 -0.00482952 -7.01355e-18)
(3.80449 -0.00408666 6.54604e-18)
(3.85377 -0.0033947 -6.13309e-18)
(3.8993 -0.00276824 -5.76638e-18)
(3.94163 -0.00221875 -5.43924e-18)
(3.98126 -0.00175434 1.02982e-17)
(4.01883 -0.00137987 0)
(4.05459 -0.00109969 0)
(4.08894 -0.000912661 -4.40589e-18)
(4.12239 -0.000817393 8.42746e-18)
(4.15513 -0.000808805 -4.03953e-18)
(4.18759 -0.000880701 7.71029e-18)
(4.21988 -0.00102465 -3.73621e-18)
(4.25235 -0.00123083 -3.56092e-18)
(4.28533 -0.00149038 6.8859e-18)
(4.3187 -0.00178914 -3.334e-18)
(4.35269 -0.00211579 6.43315e-18)
(4.38754 -0.002459 -3.1086e-18)
(4.42314 -0.00280492 0)
(4.45951 -0.00314129 -5.8712e-18)
(4.49678 -0.00345749 -2.85245e-18)
(4.53488 -0.00374249 -5.55201e-18)
(4.57375 -0.00398627 0)
(4.61328 -0.00418019 0)
(4.65346 -0.00431767 0)
(4.69416 -0.00439252 -5.03361e-18)
(4.73503 -0.00440076 -4.93766e-18)
(4.77604 -0.00434104 -4.8262e-18)
(4.8171 -0.00421332 0)
(4.85784 -0.0040193 0)
(4.89832 -0.00376297 4.53587e-18)
(4.93866 -0.00344821 -8.85523e-18)
(4.9787 -0.00308147 -4.31189e-18)
(5.01838 -0.00267238 8.38379e-18)
(5.05751 -0.0022344 0)
(5.09593 -0.00178344 -7.97913e-18)
(5.13379 -0.00134068 0)
(5.17116 -0.000928516 0)
(5.20818 -0.000579824 7.29319e-18)
(5.2453 -0.00031554 0)
(5.28337 -0.000190379 1.36663e-17)
(5.32387 -0.000183269 0)
(5.36925 -0.000420159 2.4942e-17)
(5.42393 -0.000699526 2.30834e-17)
(5.49713 -0.00146318 0)
(5.64017 -0.00131935 0)
(1.44762 -0.0312484 0)
(2.10737 -0.0257436 9.56596e-24)
(2.47639 -0.0206306 3.05669e-17)
(2.73095 -0.015711 0)
(2.92489 -0.0146701 0)
(3.07779 -0.013365 0)
(3.19728 -0.0109574 0)
(3.30154 -0.0106299 -0.000659683)
(3.39508 -0.0100227 0.000595169)
(3.48015 -0.00937621 9.64893e-18)
(3.55757 -0.0085991 0)
(3.62778 -0.00774694 0)
(3.69182 -0.00685766 5.61837e-26)
(3.75034 -0.00596623 -7.01803e-18)
(3.80396 -0.00510221 6.55066e-18)
(3.85328 -0.00428989 0)
(3.89887 -0.00354898 5.77125e-18)
(3.94126 -0.00289493 0)
(3.98096 -0.00233899 -5.15403e-18)
(4.0186 -0.00188745 9.71727e-18)
(4.05442 -0.00154697 9.30713e-18)
(4.08884 -0.00131705 1.32315e-17)
(4.12236 -0.00119608 -4.21818e-18)
(4.15515 -0.00117899 4.04377e-18)
(4.18766 -0.0012585 -3.85912e-18)
(4.21999 -0.00142498 -3.73996e-18)
(4.2525 -0.00166689 7.12868e-18)
(4.28551 -0.00197375 2.02711e-25)
(4.3189 -0.00232874 6.67372e-18)
(4.3529 -0.00271832 -6.43825e-18)
(4.38775 -0.00312897 0)
(4.42335 -0.0035439 6.05821e-18)
(4.45971 -0.00394827 -1.66717e-25)
(4.49696 -0.00432923 0)
(4.53504 -0.00467329 1.11089e-17)
(4.57388 -0.00496817 0)
(4.61337 -0.00520324 5.28613e-18)
(4.65353 -0.00537032 -5.14068e-18)
(4.69418 -0.00546169 0)
(4.73502 -0.0054724 4.93862e-18)
(4.77599 -0.00540057 0)
(4.81701 -0.00524582 4.72585e-18)
(4.85773 -0.00501051 0)
(4.89818 -0.0046992 0)
(4.93849 -0.00431619 1.32856e-17)
(4.97851 -0.00386958 -8.62586e-18)
(5.01818 -0.00337068 -8.38609e-18)
(5.05731 -0.00283587 0)
(5.09574 -0.00228493 7.98178e-18)
(5.13362 -0.0017427 0)
(5.17102 -0.00123648 0)
(5.20807 -0.000806014 -7.29523e-18)
(5.24523 -0.000477056 0)
(5.28335 -0.000314518 -1.36664e-17)
(5.32389 -0.000296119 0)
(5.36931 -0.000570448 -1.24628e-17)
(5.42402 -0.000902715 -2.30547e-17)
(5.4972 -0.00180442 -3.94871e-17)
(5.64008 -0.0016307 0)
(1.46738 -0.0288353 0)
(2.10566 -0.0242201 -4.05227e-17)
(2.47242 -0.0208544 -3.0451e-17)
(2.72906 -0.0166228 0)
(2.92391 -0.0155944 -1.96603e-17)
(3.0762 -0.0140741 1.5984e-17)
(3.19656 -0.0120921 0)
(3.30114 -0.0117613 -0.000330764)
(3.39466 -0.0112288 0.000297823)
(3.47965 -0.0106214 0)
(3.55699 -0.0098427 0)
(3.62715 -0.00895348 0)
(3.69117 -0.00799917 -7.55524e-18)
(3.7497 -0.00702455 2.10679e-17)
(3.80336 -0.00606739 -6.55533e-18)
(3.85273 -0.00515873 0)
(3.89838 -0.00432363 -1.15522e-17)
(3.94084 -0.00358172 1.08981e-17)
(3.98061 -0.00294751 0)
(4.01832 -0.00242902 -9.72685e-18)
(4.05422 -0.00203521 -9.31658e-18)
(4.08872 -0.0017664 -8.83013e-18)
(4.12231 -0.00162108 0)
(4.15517 -0.00159434 0)
(4.18774 -0.00167814 0)
(4.22012 -0.00186191 7.48727e-18)
(4.25268 -0.00213276 -1.42708e-17)
(4.28572 -0.00247887 -6.89837e-18)
(4.31913 -0.00288118 1.93802e-25)
(4.35315 -0.00332426 -6.44328e-18)
(4.388 -0.00379268 0)
(4.4236 -0.00426712 -6.06212e-18)
(4.45995 -0.00473043 5.87798e-18)
(4.49717 -0.00516781 -5.71069e-18)
(4.53523 -0.00556354 -5.55689e-18)
(4.57403 -0.00590333 -5.41562e-18)
(4.61349 -0.00617471 -5.28782e-18)
(4.6536 -0.006368 5.14208e-18)
(4.69421 -0.00647409 1.00718e-17)
(4.735 -0.00648707 0)
(4.77593 -0.00640454 9.65589e-18)
(4.81691 -0.00622573 -4.72669e-18)
(4.85759 -0.00595355 9.32514e-18)
(4.89801 -0.00559303 0)
(4.93829 -0.00514875 -2.52108e-25)
(4.9783 -0.00463026 8.62796e-18)
(5.01795 -0.0040503 0)
(5.05708 -0.00342781 0)
(5.09552 -0.00278605 0)
(5.13342 -0.00215299 0)
(5.17084 -0.00156027 1.50509e-17)
(5.20794 -0.00105369 -1.45944e-17)
(5.24515 -0.000663384 0)
(5.28332 -0.000463094 0)
(5.32392 -0.000430322 0)
(5.36939 -0.000732781 -2.49091e-17)
(5.42412 -0.00110945 4.60519e-17)
(5.49728 -0.00212532 3.93984e-17)
(5.63996 -0.00192436 0)
(1.48498 -0.0255061 -1.38371e-16)
(2.10503 -0.0215484 8.08414e-17)
(2.46936 -0.0199553 6.06374e-17)
(2.72751 -0.016581 0)
(2.92289 -0.0157863 1.95463e-17)
(3.07485 -0.0143389 -1.60041e-17)
(3.19595 -0.0128274 0)
(3.30081 -0.0125834 -0.00033105)
(3.39429 -0.0121802 0.000298592)
(3.47917 -0.0116549 0)
(3.5564 -0.0109149 0)
(3.6265 -0.0100245 1.63451e-17)
(3.69049 -0.00903721 0)
(3.74902 -0.00800768 -1.40546e-17)
(3.8027 -0.00698209 -1.31201e-17)
(3.85211 -0.00599847 0)
(3.89783 -0.0050874 -5.57658e-26)
(3.94036 -0.00427283 5.4622e-26)
(3.98021 -0.00357255 0)
(4.01801 -0.00299657 0)
(4.054 -0.00255611 0)
(4.08858 -0.00225245 0)
(4.12225 -0.00208443 8.4537e-18)
(4.15519 -0.00204744 0)
(4.18782 -0.00213292 -7.73372e-18)
(4.22027 -0.00232967 -7.4945e-18)
(4.25287 -0.00262367 7.14203e-18)
(4.28595 -0.00300205 0)
(4.31939 -0.00344389 -6.68486e-18)
(4.35343 -0.00393213 1.28964e-17)
(4.38829 -0.00444973 6.23052e-18)
(4.42388 -0.00497516 0)
(4.46021 -0.00548928 0)
(4.49741 -0.00597552 -5.71357e-18)
(4.53543 -0.00641621 0)
(4.5742 -0.00679522 -5.41768e-18)
(4.61361 -0.00709841 1.05791e-17)
(4.65368 -0.00731477 0)
(4.69424 -0.00743384 -1.00743e-17)
(4.73499 -0.00744881 0)
(4.77586 -0.00735675 -9.65776e-18)
(4.81679 -0.00715653 0)
(4.85743 -0.00685146 -9.3269e-18)
(4.89781 -0.00644692 0)
(4.93807 -0.00594773 -2.34589e-25)
(4.97805 -0.00536462 0)
(5.01769 -0.00471159 8.39069e-18)
(5.05682 -0.00400981 0)
(5.09526 -0.00328563 0)
(5.13318 -0.00256968 -1.54554e-17)
(5.17064 -0.00189745 -4.98346e-25)
(5.20779 -0.00132005 2.91966e-17)
(5.24505 -0.000871564 1.41889e-17)
(5.28329 -0.000633433 2.73325e-17)
(5.32395 -0.000583628 0)
(5.36947 -0.000905998 3.7633e-25)
(5.42424 -0.00131922 -4.59947e-17)
(5.49737 -0.00242784 0)
(5.63983 -0.0022014 0)
(1.49979 -0.0211125 1.37524e-16)
(2.1055 -0.0175112 -8.06054e-17)
(2.46732 -0.0179387 -6.03481e-17)
(2.72646 -0.015633 0)
(2.92206 -0.0153337 0)
(3.07382 -0.0142186 0)
(3.19552 -0.0132232 0)
(3.3006 -0.0131491 -0.000663795)
(3.39402 -0.0129186 0.000597596)
(3.47875 -0.0125089 0)
(3.55585 -0.0118386 0)
(3.62584 -0.0109754 -1.6356e-17)
(3.68978 -0.00998135 0)
(3.7483 -0.00892057 0)
(3.802 -0.00784769 1.31297e-17)
(3.85146 -0.00680772 -1.23044e-17)
(3.89723 -0.00583678 1.15715e-17)
(3.93984 -0.00496312 -1.09175e-17)
(3.97978 -0.00420788 1.03371e-17)
(4.01767 -0.00358312 0)
(4.05375 -0.0031023 0)
(4.08842 -0.00276779 8.84789e-18)
(4.12218 -0.00257893 1.29812e-25)
(4.1552 -0.00253152 8.11209e-18)
(4.18791 -0.00261672 1.54825e-17)
(4.22042 -0.00282289 -1.64029e-25)
(4.25308 -0.00313515 0)
(4.2862 -0.00353979 1.38208e-17)
(4.31967 -0.00401436 0)
(4.35373 -0.00454044 6.45309e-18)
(4.38859 -0.00509959 -6.23484e-18)
(4.42418 -0.00566843 0)
(4.4605 -0.00622604 1.17693e-17)
(4.49767 -0.00675431 1.14328e-17)
(4.53566 -0.00723386 0)
(4.57439 -0.0076469 1.08395e-17)
(4.61375 -0.00797778 -1.05826e-17)
(4.65377 -0.00821425 0)
(4.69428 -0.00834464 0)
(4.73496 -0.00836128 0)
(4.77579 -0.00826071 -9.65971e-18)
(4.81667 -0.00804142 9.45698e-18)
(4.85726 -0.00770702 0)
(4.8976 -0.00726316 0)
(4.93782 -0.0067148 -1.77259e-17)
(4.97777 -0.0060737 0)
(5.0174 -0.0053549 -8.393e-18)
(5.05652 -0.00458152 1.63802e-17)
(5.09498 -0.00378258 -1.59791e-17)
(5.13292 -0.00299106 1.54604e-17)
(5.17042 -0.00224575 -1.50603e-17)
(5.20762 -0.00160249 -4.26418e-25)
(5.24494 -0.00109885 -1.41912e-17)
(5.28325 -0.000823014 -6.14259e-25)
(5.32398 -0.000753905 0)
(5.36955 -0.00108894 2.48762e-17)
(5.42436 -0.00153151 4.59377e-17)
(5.49746 -0.0027137 0)
(5.63968 -0.00246274 0)
(1.5101 -0.0152059 0)
(2.10737 -0.0116396 0)
(2.46651 -0.014842 0)
(2.72612 -0.0138718 4.79461e-17)
(2.92162 -0.0143595 0)
(3.07319 -0.0137948 0)
(3.19533 -0.0133574 0)
(3.30054 -0.0135197 -0.000664936)
(3.39385 -0.0134912 0.000598379)
(3.4784 -0.0132192 0)
(3.55533 -0.0126394 0)
(3.6252 -0.0118236 -1.63673e-17)
(3.68907 -0.0108426 0)
(3.74756 -0.00976939 -1.4074e-17)
(3.80127 -0.00866663 -1.31393e-17)
(3.85077 -0.00758606 1.23141e-17)
(3.8966 -0.00656918 0)
(3.93929 -0.00564843 -1.0927e-17)
(3.97931 -0.00484816 -1.03465e-17)
(4.0173 -0.00418259 0)
(4.05348 -0.0036673 0)
(4.08825 -0.00330579 -8.85655e-18)
(4.1221 -0.00309809 -8.47045e-18)
(4.15521 -0.00304044 -8.11998e-18)
(4.188 -0.00312392 -7.74864e-18)
(4.22058 -0.00333663 -7.50854e-18)
(4.2533 -0.00366302 0)
(4.28647 -0.00408876 -1.38325e-17)
(4.31997 -0.00459016 0)
(4.35405 -0.00514764 -1.29158e-17)
(4.38892 -0.00574162 1.24782e-17)
(4.4245 -0.00634709 0)
(4.46081 -0.00694166 -1.17759e-17)
(4.49796 -0.00750583 0)
(4.53591 -0.0080187 0)
(4.57459 -0.00846103 0)
(4.61391 -0.00881582 1.05861e-17)
(4.65386 -0.00906967 0)
(4.69431 -0.00920981 0)
(4.73494 -0.00922775 0)
(4.7757 -0.00911953 9.66174e-18)
(4.81653 -0.00888325 -1.04055e-25)
(4.85707 -0.00852271 0)
(4.89736 -0.00804377 0)
(4.93755 -0.00745147 8.86497e-18)
(4.97747 -0.00675839 0)
(5.01708 -0.00598048 0)
(5.0562 -0.00514253 -3.27702e-17)
(5.09466 -0.00427587 1.59841e-17)
(5.13264 -0.00341549 0)
(5.17017 -0.00260307 0)
(5.20743 -0.00189858 -1.46057e-17)
(5.24481 -0.00134267 0)
(5.2832 -0.00102946 -2.73316e-17)
(5.324 -0.00093913 0)
(5.36964 -0.00128044 0)
(5.42449 -0.00174576 -9.1762e-17)
(5.49756 -0.00298435 -7.8288e-17)
(5.63951 -0.00270909 0)
(1.51855 -0.0143212 0)
(2.11085 -0.00311605 7.98444e-17)
(2.46723 -0.0109063 0)
(2.72671 -0.0114825 -4.74799e-17)
(2.92174 -0.0130402 0)
(3.07302 -0.013182 3.18848e-17)
(3.19542 -0.0133255 -2.72667e-17)
(3.30066 -0.0137646 -0.000331523)
(3.39382 -0.0139496 0.000297611)
(3.47814 -0.0138238 0)
(3.55487 -0.0133441 0)
(3.62459 -0.0125874 1.62783e-17)
(3.68837 -0.0116327 1.5055e-17)
(3.74682 -0.0105609 2.79857e-17)
(3.80052 -0.00944188 -1.981e-25)
(3.85005 -0.00833364 0)
(3.89595 -0.00728262 0)
(3.93871 -0.00632517 3.25795e-17)
(3.97882 -0.00548869 -2.0564e-17)
(4.01691 -0.00478952 0)
(4.05319 -0.0042452 1.85683e-17)
(4.08806 -0.00386042 1.75975e-17)
(4.12201 -0.00363593 -1.68285e-17)
(4.15522 -0.0035685 -1.61305e-17)
(4.18809 -0.00364927 0)
(4.22074 -0.00386622 -3.07752e-25)
(4.25352 -0.00420332 1.42076e-17)
(4.28675 -0.00464577 1.37319e-17)
(4.32028 -0.00516888 1.32921e-17)
(4.35439 -0.00575216 0)
(4.38927 -0.00637502 -1.2382e-17)
(4.42485 -0.00701115 1.20518e-17)
(4.46114 -0.00763683 -1.16817e-17)
(4.49826 -0.00823138 0)
(4.53617 -0.00877259 0)
(4.57481 -0.00923991 0)
(4.61407 -0.00961514 1.04581e-25)
(4.65397 -0.00988386 0)
(4.69435 -0.0100323 9.99043e-18)
(4.73492 -0.0100511 0)
(4.77562 -0.00993598 0)
(4.81638 -0.00968455 -1.87454e-17)
(4.85686 -0.00930074 0)
(4.89711 -0.00879054 0)
(4.93725 -0.00815904 0)
(4.97715 -0.00741946 0)
(5.01674 -0.00658852 1.66302e-17)
(5.05585 -0.00569242 1.62273e-17)
(5.09433 -0.00476448 0)
(5.13233 -0.00384142 0)
(5.16991 -0.00296741 0)
(5.20722 -0.002206 2.89178e-17)
(5.24468 -0.00160059 0)
(5.28314 -0.00125048 0)
(5.32402 -0.00113733 0)
(5.36974 -0.00147928 0)
(5.42463 -0.00196128 9.07154e-17)
(5.49766 -0.00324087 1.54694e-16)
(5.63934 -0.00294069 0)
(-0.067575 0.0674993 0)
(-0.0719957 0.152612 0)
(-0.0645591 0.256877 0)
(-0.0549993 0.352958 0)
(-0.0450586 0.433337 0)
(-0.0351708 0.497557 0)
(-0.02565 0.546213 0)
(-0.0166834 0.579881 0)
(-0.00836855 0.599219 0)
(-0.000868936 0.605076 0)
(0.0058674 0.598523 0)
(0.0120481 0.580519 0)
(0.0177776 0.551867 0)
(0.0230302 0.51336 0)
(0.0276115 0.466024 0)
(0.0310022 0.411448 0)
(0.0319151 0.352431 0)
(0.0274173 0.295932 0)
(0.0216288 0.246957 0)
(0.190716 0.123843 1.32135e-35)
(-0.150684 0.0702212 0)
(-0.154919 0.158513 0)
(-0.140699 0.260473 0)
(-0.121389 0.351979 0)
(-0.100345 0.429144 0)
(-0.0788791 0.491992 0)
(-0.0578226 0.540988 0)
(-0.0376058 0.576677 0)
(-0.018396 0.599647 0)
(-0.000332568 0.610677 0)
(0.0163915 0.609562 0)
(0.0319837 0.596969 0)
(0.0465377 0.573494 0)
(0.0599034 0.539613 0)
(0.0716262 0.495898 0)
(0.0807973 0.443112 0)
(0.0856948 0.382014 0)
(0.0834375 0.314012 0)
(0.0845459 0.2306 0)
(0.280286 0.0926414 -1.86548e-27)
(-0.250589 0.0631017 0)
(-0.253083 0.149493 0)
(-0.231099 0.245401 0)
(-0.200721 0.32967 0)
(-0.167247 0.400617 0)
(-0.133144 0.458548 0)
(-0.0997421 0.503897 0)
(-0.0676557 0.537212 0)
(-0.0370732 0.559081 0)
(-0.00797058 0.570243 0)
(0.0197459 0.570837 0)
(0.0461365 0.561118 0)
(0.0711874 0.541572 0)
(0.0946916 0.512401 0)
(0.116138 0.473672 0)
(0.134629 0.425305 0)
(0.148857 0.366767 0)
(0.158012 0.298278 0)
(0.180927 0.212799 0)
(0.405993 0.0816786 -1.42132e-27)
(-0.343668 0.0563579 0)
(-0.343021 0.138235 0)
(-0.312035 0.226016 0)
(-0.270308 0.301846 0)
(-0.224894 0.365428 0)
(-0.179081 0.417281 0)
(-0.134479 0.457874 0)
(-0.0917721 0.487766 0)
(-0.0511201 0.507514 0)
(-0.0124215 0.517777 0)
(0.0244282 0.518734 0)
(0.0595884 0.510491 0)
(0.0931879 0.493506 0)
(0.125218 0.467921 0)
(0.155408 0.433662 0)
(0.183157 0.390402 0)
(0.207646 0.337361 0)
(0.229366 0.274979 0)
(0.272362 0.198604 0)
(0.520316 0.0784229 7.59558e-36)
(-0.429061 0.0498251 0)
(-0.424641 0.125545 0)
(-0.384579 0.20367 0)
(-0.332284 0.270328 0)
(-0.276249 0.325969 0)
(-0.220211 0.371257 0)
(-0.165912 0.406682 0)
(-0.114036 0.432799 0)
(-0.0646806 0.450133 0)
(-0.0176297 0.45928 0)
(0.0273852 0.460408 0)
(0.0705533 0.453481 0)
(0.11201 0.438891 0)
(0.15185 0.416754 0)
(0.19002 0.386997 0)
(0.226222 0.349346 0)
(0.259973 0.303187 0)
(0.29264 0.248958 0)
(0.352833 0.183077 0)
(0.618972 0.0752602 1.5536e-36)
(-0.5059 0.0432369 0)
(-0.496981 0.11162 0)
(-0.447989 0.179102 0)
(-0.385996 0.236322 0)
(-0.320547 0.283824 0)
(-0.255569 0.32239 0)
(-0.192851 0.352497 0)
(-0.133065 0.374689 0)
(-0.0762321 0.389474 0)
(-0.022012 0.397416 0)
(0.0299755 0.39868 0)
(0.0799625 0.393117 0)
(0.12814 0.381062 0)
(0.174699 0.362605 0)
(0.219737 0.337679 0)
(0.263151 0.30607 0)
(0.304677 0.26739 0)
(0.346637 0.221779 0)
(0.422895 0.165833 0)
(0.705633 0.0702451 0)
(-0.573409 0.0365265 0)
(-0.559363 0.0967102 0)
(-0.501921 0.152939 0)
(-0.431348 0.200731 0)
(-0.357797 0.240064 0)
(-0.285207 0.271877 0)
(-0.215392 0.296598 0)
(-0.149017 0.314774 0)
(-0.0860301 0.326922 0)
(-0.0259441 0.333617 0)
(0.0317711 0.33506 0)
(0.087391 0.33099 0)
(0.14115 0.321685 0)
(0.193309 0.307211 0)
(0.244066 0.287474 0)
(0.293446 0.262264 0)
(0.341389 0.231362 0)
(0.391528 0.194414 0)
(0.48386 0.14759 0)
(0.782494 0.0631778 9.71694e-28)
(-0.630988 0.0296862 0)
(-0.611357 0.0810536 0)
(-0.54624 0.125672 0)
(-0.468346 0.164174 0)
(-0.388004 0.195357 0)
(-0.309086 0.220439 0)
(-0.233448 0.239754 0)
(-0.161774 0.253859 0)
(-0.0939595 0.263307 0)
(-0.0293518 0.268725 0)
(0.0327611 0.270412 0)
(0.0927192 0.267985 0)
(0.150815 0.261666 0)
(0.207381 0.251482 0)
(0.262686 0.237271 0)
(0.316848 0.218766 0)
(0.370068 0.195821 0)
(0.427778 0.16742 0)
(0.536854 0.128826 0)
(0.850809 0.0541776 7.93547e-37)
(-0.67817 0.0227005 0)
(-0.652694 0.064794 0)
(-0.58091 0.0975757 0)
(-0.497028 0.126927 0)
(-0.411194 0.149966 0)
(-0.327214 0.168372 0)
(-0.247004 0.18232 0)
(-0.1713 0.192369 0)
(-0.0999907 0.199095 0)
(-0.03226 0.203217 0)
(0.032836 0.205242 0)
(0.0957541 0.204636 0)
(0.15688 0.201553 0)
(0.216623 0.195958 0)
(0.275319 0.187584 0)
(0.333169 0.176052 0)
(0.390746 0.161175 0)
(0.455932 0.141107 0)
(0.583007 0.109801 0)
(0.91183 0.0432702 5.43772e-37)
(-0.714568 0.0155175 0)
(-0.683175 0.0479371 0)
(-0.605899 0.0686914 0)
(-0.517417 0.0889242 0)
(-0.427413 0.103807 0)
(-0.339669 0.115634 0)
(-0.256142 0.124349 0)
(-0.177651 0.130479 0)
(-0.104156 0.134566 0)
(-0.034735 0.137409 0)
(0.0318451 0.139891 0)
(0.0962683 0.1413 0)
(0.159067 0.141708 0)
(0.220744 0.140997 0)
(0.281704 0.13875 0)
(0.342246 0.134419 0)
(0.403488 0.127664 0)
(0.476616 0.115643 0)
(0.623381 0.0907173 0)
(0.966685 0.0301049 1.87762e-36)
(-0.739796 0.00802848 0)
(-0.702608 0.0303226 0)
(-0.621149 0.0388354 0)
(-0.529513 0.0498148 0)
(-0.436734 0.0565241 0)
(-0.346589 0.0619118 0)
(-0.26102 0.0656413 0)
(-0.180938 0.0681769 0)
(-0.106468 0.0699181 0)
(-0.0367715 0.0716321 0)
(0.0296649 0.0747124 0)
(0.0940303 0.0782783 0)
(0.157093 0.0823854 0)
(0.219447 0.0868272 0)
(0.281589 0.0909739 0)
(0.343947 0.0940094 0)
(0.408418 0.0953269 0)
(0.490624 0.0908674 0)
(0.659195 0.071173 0)
(1.01834 0.0140411 1.46673e-36)
(-0.753298 3.63599e-05 0)
(-0.710631 0.0115902 0)
(-0.626429 0.00764468 0)
(-0.533181 0.00904137 0)
(-0.439151 0.00757978 0)
(-0.348077 0.006669 0)
(-0.261799 0.00575905 0)
(-0.181261 0.00521365 0)
(-0.106752 0.00519536 0)
(-0.0377412 0.00621923 0)
(0.027112 0.0100535 0)
(0.0896392 0.015747 0)
(0.151357 0.0236338 0)
(0.212974 0.0334359 0)
(0.275068 0.0442355 0)
(0.33829 0.0547143 0)
(0.405837 0.0638813 0)
(0.499187 0.0660223 0)
(0.691994 0.0493996 0)
(1.0678 -0.00526931 1.12225e-36)
(-0.754016 -0.00876996 0)
(-0.706284 -0.00884317 0)
(-0.620933 -0.025387 0)
(-0.527852 -0.0341331 0)
(-0.434448 -0.0437576 0)
(-0.34432 -0.0508994 0)
(-0.25915 -0.056082 0)
(-0.179823 -0.0590737 0)
(-0.106693 -0.0599482 0)
(-0.0395931 -0.0586357 0)
(0.0224159 -0.0538906 0)
(0.0816516 -0.0463978 0)
(0.140432 -0.0350878 0)
(0.199856 -0.02027 0)
(0.261254 -0.0028305 0)
(0.325691 0.0155016 0)
(0.396662 0.0324262 0)
(0.503933 0.0395545 0)
(0.722829 0.0224867 0)
(1.11236 -0.0278731 8.42821e-37)
(-0.740622 -0.0187886 0)
(-0.68939 -0.0314037 0)
(-0.604863 -0.0610951 0)
(-0.513909 -0.0807189 0)
(-0.423134 -0.0988792 0)
(-0.335914 -0.11248 0)
(-0.253766 -0.121915 0)
(-0.177435 -0.127055 0)
(-0.107159 -0.128138 0)
(-0.0428161 -0.125503 0)
(0.0161666 -0.11862 0)
(0.0716265 -0.108917 0)
(0.126377 -0.0942845 0)
(0.182283 -0.0748881 0)
(0.240892 -0.051611 0)
(0.304219 -0.0263252 0)
(0.380175 -0.00263058 0)
(0.507646 0.00621591 0)
(0.756979 -0.0124323 0)
(1.14529 -0.0519645 6.11379e-37)
(-0.711705 -0.0302732 0)
(-0.658917 -0.0564426 0)
(-0.577047 -0.100514 0)
(-0.490252 -0.132161 0)
(-0.40425 -0.159782 0)
(-0.3221 -0.180623 0)
(-0.24513 -0.194968 0)
(-0.173897 -0.202764 0)
(-0.108407 -0.204316 0)
(-0.0482697 -0.200115 0)
(0.00719006 -0.189915 0)
(0.0584446 -0.176856 0)
(0.108234 -0.158359 0)
(0.159542 -0.134214 0)
(0.214644 -0.105527 0)
(0.277664 -0.0749786 0)
(0.363112 -0.0490629 0)
(0.51474 -0.0411834 0)
(0.781295 -0.0540829 0)
(1.16491 -0.0757371 4.31485e-37)
(-0.665414 -0.0435035 0)
(-0.613268 -0.0845926 0)
(-0.536065 -0.144735 0)
(-0.455648 -0.190005 0)
(-0.376701 -0.228513 0)
(-0.301867 -0.257969 0)
(-0.232255 -0.278649 0)
(-0.168224 -0.290654 0)
(-0.109563 -0.294351 0)
(-0.0556233 -0.29031 0)
(-0.00561624 -0.278916 0)
(0.0408117 -0.260632 0)
(0.0852118 -0.23823 0)
(0.131433 -0.209781 0)
(0.183442 -0.177205 0)
(0.24896 -0.144361 0)
(0.347517 -0.118164 0)
(0.516721 -0.105134 0)
(0.789868 -0.101049 0)
(1.16715 -0.0971689 2.92726e-37)
(-0.599413 -0.0587646 0)
(-0.550434 -0.116334 0)
(-0.480093 -0.19457 0)
(-0.408433 -0.25546 0)
(-0.338923 -0.30667 0)
(-0.273645 -0.346537 0)
(-0.213454 -0.375479 0)
(-0.158537 -0.393861 0)
(-0.108553 -0.402195 0)
(-0.0627399 -0.401123 0)
(-0.0201081 -0.391216 0)
(0.020259 -0.372209 0)
(0.0593366 -0.348644 0)
(0.100907 -0.318878 0)
(0.15106 -0.284951 0)
(0.219994 -0.250085 0)
(0.327095 -0.217531 0)
(0.502359 -0.187019 0)
(0.773329 -0.152973 0)
(1.14565 -0.11322 1.87591e-37)
(-0.509864 -0.0764099 0)
(-0.467446 -0.151968 0)
(-0.406725 -0.250385 0)
(-0.346534 -0.329086 0)
(-0.288998 -0.394995 0)
(-0.235515 -0.447226 0)
(-0.186669 -0.486504 0)
(-0.142537 -0.513616 0)
(-0.102746 -0.529407 0)
(-0.0665189 -0.534738 0)
(-0.0326792 -0.530383 0)
(0.000257183 -0.516397 0)
(0.0335872 -0.494981 0)
(0.0703937 -0.467333 0)
(0.117484 -0.433395 0)
(0.185271 -0.39393 0)
(0.290787 -0.347511 0)
(0.459152 -0.288877 0)
(0.718829 -0.211932 0)
(1.08951 -0.12124 1.10905e-37)
(-0.391995 -0.0973581 0)
(-0.360486 -0.192221 0)
(-0.31303 -0.312151 0)
(-0.267497 -0.410422 0)
(-0.22457 -0.492818 0)
(-0.184834 -0.559283 0)
(-0.148586 -0.610907 0)
(-0.115843 -0.648912 0)
(-0.0863178 -0.674521 0)
(-0.0594158 -0.688851 0)
(-0.0341669 -0.692846 0)
(-0.00921261 -0.68702 0)
(0.0169245 -0.670906 0)
(0.0465192 -0.647502 0)
(0.0853699 -0.614579 0)
(0.142753 -0.570009 0)
(0.232667 -0.507993 0)
(0.376855 -0.417333 0)
(0.609444 -0.286311 0)
(0.978465 -0.122265 5.89463e-38)
(-0.250404 -0.122902 0)
(-0.23052 -0.238155 0)
(-0.198893 -0.37858 0)
(-0.170959 -0.496265 0)
(-0.145804 -0.595665 0)
(-0.123115 -0.677532 0)
(-0.102853 -0.743249 0)
(-0.0849495 -0.794305 0)
(-0.0692146 -0.832178 0)
(-0.0552772 -0.858198 0)
(-0.0424729 -0.873431 0)
(-0.0296958 -0.878506 0)
(-0.0152977 -0.873154 0)
(0.00295586 -0.856737 0)
(0.0286411 -0.828939 0)
(0.0689866 -0.784367 0)
(0.135296 -0.713051 0)
(0.246529 -0.593691 0)
(0.44121 -0.395763 0)
(0.793855 -0.114886 2.76995e-38)
(-0.124383 -0.147775 0)
(-0.106505 -0.28204 0)
(-0.0854059 -0.437861 0)
(-0.0701054 -0.570629 0)
(-0.0575939 -0.684323 0)
(-0.0467733 -0.780625 0)
(-0.0371885 -0.861296 0)
(-0.0285059 -0.92803 0)
(-0.0204011 -0.982327 0)
(-0.0125151 -1.0255 0)
(-0.00436854 -1.05854 0)
(0.00472373 -1.08187 0)
(0.0157257 -1.09495 0)
(0.0299439 -1.09546 0)
(0.0497874 -1.08003 0)
(0.0795086 -1.04248 0)
(0.125948 -0.967368 0)
(0.202008 -0.818227 0)
(0.339637 -0.526863 0)
(0.654301 0.0194923 1.04238e-38)
(1.51748 -0.0231598 -1.32954e-16)
(2.11516 0.00662918 4.06408e-24)
(2.46975 -0.00668662 5.9242e-17)
(2.7284 -0.00886991 4.72346e-17)
(2.92254 -0.0116626 0)
(3.07336 -0.0125493 -3.18808e-17)
(3.19579 -0.0132409 2.72956e-17)
(3.30095 -0.0139542 2.39385e-17)
(3.3939 -0.0143379 4.29836e-17)
(3.47797 -0.0143482 0)
(3.55447 -0.0139639 1.77138e-17)
(3.62403 -0.0132676 1.62735e-17)
(3.6877 -0.012345 -3.00925e-17)
(3.74609 -0.0112832 2.55924e-25)
(3.79979 -0.0101581 1.30481e-17)
(3.84934 -0.00903279 -1.22246e-17)
(3.89529 -0.00795798 0)
(3.93813 -0.00697341 -2.16817e-17)
(3.97833 -0.00610918 2.05227e-17)
(4.01651 -0.00538354 0)
(4.05289 -0.00481581 -3.70433e-17)
(4.08787 -0.0044118 -1.75465e-17)
(4.12192 -0.00417298 1.67751e-17)
(4.15522 -0.00409669 3.21494e-17)
(4.18818 -0.00417421 0)
(4.22091 -0.00439353 2.97041e-17)
(4.25375 -0.0047383 -1.41423e-17)
(4.28703 -0.00519339 -2.73288e-17)
(4.3206 -0.00573335 -1.32228e-17)
(4.35473 -0.00633698 0)
(4.38962 -0.0069829 0)
(4.4252 -0.0076437 -1.19744e-17)
(4.46147 -0.00829458 1.16017e-17)
(4.49857 -0.0089139 0)
(4.53644 -0.00947828 -1.09511e-17)
(4.57503 -0.00996612 0)
(4.61424 -0.0103581 9.28833e-26)
(4.65407 -0.010639 0)
(4.6944 -0.0107941 -9.89654e-18)
(4.7349 -0.0108134 0)
(4.77553 -0.010692 0)
(4.81623 -0.0104274 9.27317e-18)
(4.85665 -0.0100234 9.14358e-18)
(4.89685 -0.00948605 1.77855e-17)
(4.93695 -0.0088205 -1.73509e-17)
(4.97681 -0.00804046 0)
(5.01639 -0.00716323 -1.64077e-17)
(5.05549 -0.00621621 -1.60005e-17)
(5.09398 -0.00523433 0)
(5.132 -0.00425578 0)
(5.16963 -0.00332675 0)
(5.207 -0.00251387 -6.86341e-25)
(5.24453 -0.00186285 -2.76093e-17)
(5.28308 -0.00147738 0)
(5.32404 -0.00134069 0)
(5.36983 -0.00167835 0)
(5.42477 -0.00217104 -4.44291e-17)
(5.49775 -0.00347711 -7.56908e-17)
(5.63915 -0.00315284 0)
(1.51999 -0.0139086 1.12127e-23)