0 	0
0.00242111 	0
0.00484221 	0
0.00726332 	0
0.00968442 	0
0.0121055 	0
0.0145266 	0
0.0169477 	0
0.0193688 	0
0.0217899 	0
0.0242111 	0
0.0266322 	0
0.0290533 	0
0.0314744 	0
0.0338955 	0
0.0363166 	0
0.0387377 	0
0.0411588 	0
0.0435799 	0
0.046001 	0
