0 	0
0.00315684 	0
0.00631368 	0
0.00947053 	0
0.0126274 	0
0.0157842 	0
0.0189411 	0
0.0220979 	0
0.0252547 	0
0.0284116 	0
0.0315684 	0
0.0347253 	0
0.0378821 	0
0.0410389 	0
0.0441958 	0
0.0473526 	0
0.0505095 	0
0.0536663 	0
0.0568232 	0
0.05998 	0
