0 	0
0.00315789 	0
0.00631579 	0
0.00947368 	0
0.0126316 	0
0.0157895 	0
0.0189474 	0
0.0221053 	0
0.0252632 	0
0.0284211 	0
0.0315789 	0
0.0347368 	0
0.0378947 	0
0.0410526 	0
0.0442105 	0
0.0473684 	0
0.0505263 	0
0.0536842 	0
0.0568421 	0
0.06 	0
