0 	0
0.00321 	0
0.00642 	0
0.00963 	0
0.01284 	0
0.01605 	0
0.01926 	0
0.02247 	0
0.02568 	0
0.02889 	0
0.0321 	0
0.03531 	0
0.03852 	0
0.04173 	0
0.04494 	0
0.04815 	0
0.05136 	0
0.05457 	0
0.05778 	0
0.06099 	0
