/*--------------------------------*- C++ -*----------------------------------*\
| =========                 |                                                 |
| \\      /  F ield         | OpenFOAM: The Open Source CFD Toolbox           |
|  \\    /   O peration     | Version:  3.0.1                                 |
|   \\  /    A nd           | Web:      www.OpenFOAM.org                      |
|    \\/     M anipulation  |                                                 |
\*---------------------------------------------------------------------------*/
FoamFile
{
    version     2.0;
    format      ascii;
    class       surfaceScalarField;
    location    "2600";
    object      phi;
}
// * * * * * * * * * * * * * * * * * * * * * * * * * * * * * * * * * * * * * //

dimensions      [0 3 -1 0 0 0 0];

internalField   nonuniform List<scalar> 
28494
(
-2.17047e-06
0.000164364
-9.42764e-07
0.000254425
-4.06731e-07
0.000301903
-1.45103e-07
0.000331309
-4.68543e-07
0.000357394
-2.20062e-07
0.000380823
-2.15064e-07
0.000399106
-1.95588e-07
0.00041615
-1.74855e-07
0.000427947
-1.54001e-07
0.000447459
-1.32971e-07
0.000457422
-1.13114e-07
0.000471021
-9.44878e-08
0.000483982
-7.73067e-08
0.000496368
-6.17474e-08
0.000508243
-4.7955e-08
0.00051967
-3.60378e-08
0.000530709
-2.6063e-08
0.000541423
-1.79968e-08
0.000551868
-1.20492e-08
0.000567187
-7.83634e-09
0.000572219
-5.58163e-09
0.000587355
-5.0059e-09
0.000597342
-5.9831e-09
0.000607308
-8.4108e-09
0.000622594
-1.1969e-08
0.000627383
-1.65972e-08
0.000648277
-2.19824e-08
0.000658697
-2.79045e-08
0.000669263
-3.41629e-08
0.000685497
-4.05253e-08
0.00070204
-4.67527e-08
0.000713312
-5.26549e-08
0.000730417
-5.80447e-08
0.000747859
-6.27455e-08
0.000765628
-6.66036e-08
0.000783723
-6.94895e-08
0.000802134
-7.13229e-08
0.000826716
-7.2007e-08
0.000845787
-7.1501e-08
0.000865096
-6.98208e-08
0.000890648
-6.69995e-08
0.000916527
-6.30115e-08
0.000936531
-5.80347e-08
0.000975202
-5.20911e-08
0.00101435
-4.53401e-08
0.00106022
-3.79987e-08
0.00111294
-3.03013e-08
0.00116623
-2.25337e-08
0.00122645
-1.5206e-08
0.00130672
-8.63501e-09
0.00138789
-3.55512e-09
0.00148969
-2.3525e-10
0.00160604
1.64285e-10
0.00176412
-1.61464e-09
0.00196545
-8.30972e-09
0.00225279
-1.5323e-08
0.00269942
-3.1414e-08
0.00356007
0.00881955
-2.53314e-06
0.000166897
-1.6189e-06
0.000253511
-8.82018e-07
0.000301166
-5.90603e-07
0.000331017
-7.52021e-07
0.000357555
-5.19756e-07
0.000380591
-4.6286e-07
0.000399049
-4.30048e-07
0.000416117
-3.92526e-07
0.00042791
-3.51885e-07
0.000447418
-3.09975e-07
0.00045738
-2.68537e-07
0.000470979
-2.28539e-07
0.000483942
-1.90745e-07
0.00049633
-1.55809e-07
0.000508208
-1.24279e-07
0.000519639
-9.65894e-08
0.000530682
-7.30506e-08
0.0005414
-5.38576e-08
0.000551849
-3.91652e-08
0.000567173
-2.8882e-08
0.000572209
-2.2977e-08
0.000587349
-2.11983e-08
0.00059734
-2.32308e-08
0.00060731
-2.87863e-08
0.0006226
-3.72427e-08
0.000627392
-4.8383e-08
0.000648288
-6.14994e-08
0.00065871
-7.60242e-08
0.000669277
-9.14901e-08
0.000685512
-1.07324e-07
0.000702056
-1.22868e-07
0.000713328
-1.37688e-07
0.000730432
-1.5128e-07
0.000747872
-1.63185e-07
0.00076564
-1.73e-07
0.000783733
-1.80386e-07
0.000802141
-1.85114e-07
0.000826721
-1.86933e-07
0.000845789
-1.85745e-07
0.000865095
-1.8155e-07
0.000890644
-1.74388e-07
0.00091652
-1.64377e-07
0.000936521
-1.5172e-07
0.000975189
-1.36638e-07
0.00101434
-1.19492e-07
0.00106021
-1.00793e-07
0.00111292
-8.12057e-08
0.00116621
-6.15272e-08
0.00122643
-4.27996e-08
0.0013067
-2.61382e-08
0.00138787
-1.30213e-08
0.00148968
-4.59782e-09
0.00160603
-2.78133e-09
0.00176412
-7.43543e-09
0.00196546
-2.17089e-08
0.0022528
-4.08546e-08
0.00269944
-6.95495e-08
0.0035601
0.00881948
-2.57591e-06
0.000169473
-1.9443e-06
0.00025288
-1.24051e-06
0.000300462
-9.54528e-07
0.000330731
-9.77801e-07
0.000357578
-7.56028e-07
0.000380369
-6.73575e-07
0.000398967
-6.28828e-07
0.000416072
-5.80278e-07
0.000427861
-5.26133e-07
0.000447364
-4.68974e-07
0.000457323
-4.10931e-07
0.000470921
-3.53825e-07
0.000483884
-2.99077e-07
0.000496275
-2.4788e-07
0.000508157
-2.01225e-07
0.000519592
-1.599e-07
0.00053064
-1.24498e-07
0.000541365
-9.54333e-08
0.00055182
-7.28455e-08
0.00056715
-5.69656e-08
0.000572193
-4.75362e-08
0.00058734
-4.4353e-08
0.000597337
-4.69663e-08
0.000607312
-5.4924e-08
0.000622608
-6.73744e-08
0.000627404
-8.39502e-08
0.000648304
-1.03618e-07
0.00065873
-1.25508e-07
0.000669299
-1.48922e-07
0.000685536
-1.72987e-07
0.00070208
-1.96673e-07
0.000713352
-2.19324e-07
0.000730454
-2.40157e-07
0.000747893
-2.58452e-07
0.000765658
-2.73576e-07
0.000783748
-2.84998e-07
0.000802153
-2.92342e-07
0.000826728
-2.95212e-07
0.000845791
-2.93456e-07
0.000865094
-2.87038e-07
0.000890638
-2.76005e-07
0.000916509
-2.60621e-07
0.000936506
-2.41072e-07
0.00097517
-2.17768e-07
0.00101431
-1.91247e-07
0.00106018
-1.62268e-07
0.00111289
-1.31903e-07
0.00116618
-1.01409e-07
0.0012264
-7.22454e-08
0.00130667
-4.62964e-08
0.00138785
-2.564e-08
0.00148966
-1.23023e-08
0.00160602
-8.67975e-09
0.00176412
-1.56425e-08
0.00196546
-3.58768e-08
0.00225282
-6.62124e-08
0.00269947
-1.0341e-07
0.00356014
0.00881937
-2.55215e-06
0.000172025
-2.10687e-06
0.000252434
-1.48052e-06
0.000299836
-1.21204e-06
0.000330463
-1.15567e-06
0.000357522
-9.37934e-07
0.000380151
-8.45732e-07
0.000398875
-7.94375e-07
0.000416021
-7.40516e-07
0.000427807
-6.78433e-07
0.000447302
-6.10963e-07
0.000457255
-5.40706e-07
0.000470851
-4.70293e-07
0.000483814
-4.01868e-07
0.000496207
-3.37212e-07
0.000508092
-2.77794e-07
0.000519533
-2.24789e-07
0.000530587
-1.79087e-07
0.000541319
-1.41326e-07
0.000551782
-1.11694e-07
0.000567121
-9.06969e-08
0.000572172
-7.79372e-08
0.000587327
-7.32505e-08
0.000597333
-7.60927e-08
0.000607315
-8.5885e-08
0.000622617
-1.01583e-07
0.00062742
-1.22698e-07
0.000648325
-1.47916e-07
0.000658755
-1.76114e-07
0.000669327
-2.06386e-07
0.000685566
-2.376e-07
0.000702111
-2.68396e-07
0.000713382
-2.97922e-07
0.000730484
-3.25139e-07
0.00074792
-3.49095e-07
0.000765682
-3.68943e-07
0.000783768
-3.83972e-07
0.000802168
-3.93671e-07
0.000826738
-3.97507e-07
0.000845795
-3.95269e-07
0.000865091
-3.8688e-07
0.000890629
-3.72395e-07
0.000916494
-3.52197e-07
0.000936485
-3.26459e-07
0.000975144
-2.95746e-07
0.00101428
-2.60754e-07
0.00106015
-2.22459e-07
0.00111285
-1.82304e-07
0.00116614
-1.41949e-07
0.00122636
-1.0322e-07
0.00130663
-6.86766e-08
0.00138781
-4.09474e-08
0.00148963
-2.28173e-08
0.001606
-1.7163e-08
0.00176411
-2.57403e-08
0.00196547
-5.09403e-08
0.00225285
-9.08073e-08
0.00269951
-1.35193e-07
0.00356018
0.00881924
-2.44164e-06
0.000174467
-2.15619e-06
0.000252149
-1.62326e-06
0.000299303
-1.37976e-06
0.000330219
-1.27678e-06
0.000357419
-1.07231e-06
0.000379947
-9.80402e-07
0.000398783
-9.28781e-07
0.000415969
-8.74786e-07
0.000427753
-8.09884e-07
0.000447237
-7.36655e-07
0.000457182
-6.58204e-07
0.000470772
-5.7798e-07
0.000483734
-4.98892e-07
0.000496128
-4.23358e-07
0.000508017
-3.53363e-07
0.000519463
-2.90489e-07
0.000530524
-2.35948e-07
0.000541264
-1.90608e-07
0.000551737
-1.54747e-07
0.000567085
-1.29125e-07
0.000572146
-1.13259e-07
0.000587311
-1.0703e-07
0.000597326
-1.09832e-07
0.000607318
-1.20989e-07
0.000622629
-1.393e-07
0.000627438
-1.64177e-07
0.00064835
-1.94072e-07
0.000658785
-2.27641e-07
0.000669361
-2.63804e-07
0.000685602
-3.01198e-07
0.000702148
-3.38178e-07
0.000713419
-3.7371e-07
0.000730519
-4.06532e-07
0.000747953
-4.35478e-07
0.000765711
-4.59509e-07
0.000783792
-4.77748e-07
0.000802186
-4.89553e-07
0.000826749
-4.94266e-07
0.0008458
-4.91613e-07
0.000865089
-4.81477e-07
0.000890619
-4.63913e-07
0.000916477
-4.39408e-07
0.000936461
-4.08114e-07
0.000975113
-3.70732e-07
0.00101424
-3.28094e-07
0.0010601
-2.81367e-07
0.00111281
-2.32326e-07
0.00116609
-1.82984e-07
0.00122631
-1.35485e-07
0.00130658
-9.29916e-08
0.00138777
-5.86242e-08
0.00148959
-3.58352e-08
0.00160598
-2.79601e-08
0.0017641
-3.75468e-08
0.00196548
-6.68091e-08
0.00225288
-1.14731e-07
0.00269956
-1.65061e-07
0.00356023
0.00881907
-2.24058e-06
0.000176707
-2.09889e-06
0.000252007
-1.67274e-06
0.000298877
-1.46484e-06
0.000330011
-1.34334e-06
0.000357298
-1.16237e-06
0.000379766
-1.08005e-06
0.0003987
-1.03455e-06
0.000415923
-9.85182e-07
0.000427704
-9.22007e-07
0.000447174
-8.47073e-07
0.000457107
-7.64024e-07
0.000470689
-6.77132e-07
0.000483647
-5.90105e-07
0.000496041
-5.06039e-07
0.000507933
-4.27462e-07
0.000519384
-3.56388e-07
0.000530453
-2.9436e-07
0.000541202
-2.42494e-07
0.000551685
-2.01181e-07
0.000567043
-1.71425e-07
0.000572116
-1.52697e-07
0.000587293
-1.44937e-07
0.000597319
-1.47497e-07
0.00060732
-1.59633e-07
0.000622641
-1.80018e-07
0.000627459
-2.07985e-07
0.000648378
-2.41791e-07
0.000658819
-2.79906e-07
0.000669399
-3.21096e-07
0.000685643
-3.63804e-07
0.000702191
-4.06129e-07
0.000713462
-4.46882e-07
0.00073056
-4.84598e-07
0.000747991
-5.1792e-07
0.000765744
-5.45635e-07
0.00078382
-5.6671e-07
0.000802207
-5.80386e-07
0.000826763
-5.85884e-07
0.000845806
-5.82869e-07
0.000865086
-5.71181e-07
0.000890608
-5.50874e-07
0.000916456
-5.22517e-07
0.000936433
-4.86245e-07
0.000975077
-4.42869e-07
0.0010142
-3.93339e-07
0.00106005
-3.38989e-07
0.00111275
-2.8189e-07
0.00116603
-2.24365e-07
0.00122626
-1.68833e-07
0.00130653
-1.18988e-07
0.00138772
-7.83922e-08
0.00148955
-5.10852e-08
0.00160595
-4.08367e-08
0.00176409
-5.08983e-08
0.00196549
-8.3409e-08
0.00225291
-1.38041e-07
0.00269961
-1.93168e-07
0.00356029
0.00881888
-1.94961e-06
0.000178657
-1.93791e-06
0.000251996
-1.6291e-06
0.000298568
-1.47227e-06
0.000329854
-1.35963e-06
0.000357185
-1.21256e-06
0.000379619
-1.14841e-06
0.000398636
-1.11436e-06
0.000415889
-1.07451e-06
0.000427664
-1.01687e-06
0.000447116
-9.43644e-07
0.000457034
-8.59064e-07
0.000470605
-7.68222e-07
0.000483556
-6.75646e-07
0.000495948
-5.85127e-07
0.000507842
-4.99755e-07
0.000519299
-4.21987e-07
0.000530376
-3.53709e-07
0.000541134
-2.96289e-07
0.000551628
-2.50258e-07
0.000566997
-2.1685e-07
0.000572083
-1.9552e-07
0.000587271
-1.86276e-07
0.000597309
-1.88451e-07
0.000607323
-2.01253e-07
0.000622653
-2.2326e-07
0.000627481
-2.5374e-07
0.000648409
-2.90791e-07
0.000658856
-3.32725e-07
0.000669441
-3.78179e-07
0.000685689
-4.25425e-07
0.000702238
-4.72346e-07
0.000713509
-5.1761e-07
0.000730605
-5.59574e-07
0.000748033
-5.96711e-07
0.000765781
-6.27649e-07
0.000783851
-6.51215e-07
0.000802231
-6.66539e-07
0.000826778
-6.72729e-07
0.000845812
-6.69392e-07
0.000865082
-6.56324e-07
0.000890595
-6.33573e-07
0.000916434
-6.01775e-07
0.000936401
-5.61046e-07
0.000975036
-5.12289e-07
0.00101415
-4.56556e-07
0.00106
-3.95326e-07
0.00111269
-3.30927e-07
0.00116597
-2.65955e-07
0.00122619
-2.03068e-07
0.00130647
-1.46428e-07
0.00138767
-9.99908e-08
0.00148951
-6.83116e-08
0.00160592
-5.55688e-08
0.00176408
-6.5636e-08
0.0019655
-1.00663e-07
0.00225294
-1.60787e-07
0.00269967
-2.19669e-07
0.00356034
0.00881866
-1.54058e-06
0.000180197
-1.66794e-06
0.000252123
-1.49403e-06
0.000298394
-1.4093e-06
0.00032977
-1.3314e-06
0.000357107
-1.22872e-06
0.000379516
-1.19044e-06
0.000398598
-1.17357e-06
0.000415873
-1.14613e-06
0.000427636
-1.09696e-06
0.000447067
-1.0281e-06
0.000456965
-9.44451e-07
0.000470521
-8.51908e-07
0.000483463
-7.55803e-07
0.000495852
-6.60621e-07
0.000507747
-5.70018e-07
0.000519208
-4.86895e-07
0.000530292
-4.13481e-07
0.000541061
-3.514e-07
0.000551566
-3.01334e-07
0.000566947
-2.64733e-07
0.000572046
-2.41068e-07
0.000587248
-2.30417e-07
0.000597299
-2.32112e-07
0.000607324
-2.45331e-07
0.000622667
-2.68582e-07
0.000627504
-3.01082e-07
0.000648441
-3.40799e-07
0.000658896
-3.85916e-07
0.000669486
-4.3496e-07
0.000685738
-4.86057e-07
0.000702289
-5.36902e-07
0.000713559
-5.86037e-07
0.000730654
-6.31665e-07
0.000748078
-6.72105e-07
0.000765822
-7.05845e-07
0.000783885
-7.31581e-07
0.000802257
-7.48343e-07
0.000826795
-7.55136e-07
0.000845819
-7.51505e-07
0.000865079
-7.37208e-07
0.00089058
-7.12281e-07
0.000916409
-6.7741e-07
0.000936366
-6.32696e-07
0.000974991
-5.79117e-07
0.0010141
-5.17808e-07
0.00105994
-4.50375e-07
0.00111262
-3.79371e-07
0.0011659
-3.07628e-07
0.00122612
-2.38011e-07
0.0013064
-1.75093e-07
0.0013876
-1.23177e-07
0.00148946
-8.72751e-08
0.00160588
-7.19448e-08
0.00176406
-8.1608e-08
0.00196551
-1.18494e-07
0.00225298
-1.83009e-07
0.00269974
-2.44701e-07
0.00356041
0.00881842
-9.47322e-07
0.000181145
-1.27948e-06
0.000252455
-1.2724e-06
0.000298387
-1.28668e-06
0.000329784
-1.26714e-06
0.000357088
-1.2184e-06
0.000379467
-1.2123e-06
0.000398592
-1.2163e-06
0.000415877
-1.20379e-06
0.000427624
-1.16503e-06
0.000447028
-1.10238e-06
0.000456902
-1.02147e-06
0.00047044
-9.28963e-07
0.000483371
-8.30962e-07
0.000495754
-7.32613e-07
0.000507649
-6.38119e-07
0.000519114
-5.50809e-07
0.000530205
-4.73248e-07
0.000540983
-4.07312e-07
0.0005515
-3.5384e-07
0.000566894
-3.14485e-07
0.000572007
-2.8875e-07
0.000587222
-2.7679e-07
0.000597287
-2.7795e-07
0.000607326
-2.9139e-07
0.00062268
-3.15571e-07
0.000627528
-3.49671e-07
0.000648475
-3.91556e-07
0.000658938
-4.39301e-07
0.000669534
-4.9134e-07
0.00068579
-5.45677e-07
0.000702344
-5.99846e-07
0.000713614
-6.52279e-07
0.000730707
-7.01044e-07
0.000748127
-7.44324e-07
0.000765865
-7.80479e-07
0.000783921
-8.0809e-07
0.000802284
-8.26095e-07
0.000826813
-8.33401e-07
0.000845826
-8.29499e-07
0.000865075
-8.14104e-07
0.000890565
-7.87236e-07
0.000916382
-7.49628e-07
0.000936328
-7.01356e-07
0.000974943
-6.43461e-07
0.00101404
-5.77149e-07
0.00105987
-5.04131e-07
0.00111255
-4.27158e-07
0.00116582
-3.49265e-07
0.00122604
-2.73494e-07
0.00130632
-2.04777e-07
0.00138753
-1.47726e-07
0.0014894
-1.07751e-07
0.00160584
-8.97644e-08
0.00176405
-9.86672e-08
0.00196552
-1.3682e-07
0.00225302
-2.04734e-07
0.00269981
-2.68372e-07
0.00356047
0.00881815
-3.45636e-07
0.00018149
-7.85075e-07
0.000252894
-9.79006e-07
0.000298581
-1.12127e-06
0.000329926
-1.17942e-06
0.000357146
-1.19135e-06
0.000379479
-1.22129e-06
0.000398622
-1.24834e-06
0.000415904
-1.25153e-06
0.000427627
-1.224e-06
0.000447001
-1.16851e-06
0.000456847
-1.09146e-06
0.000470363
-1.00022e-06
0.00048328
-9.01559e-07
0.000495655
-8.01244e-07
0.000507548
-7.03972e-07
0.000519016
-6.13478e-07
0.000530115
-5.32638e-07
0.000540902
-4.63567e-07
0.000551431
-4.07263e-07
0.000566838
-3.65566e-07
0.000571965
-3.38023e-07
0.000587194
-3.2487e-07
0.000597274
-3.25471e-07
0.000607326
-3.38985e-07
0.000622694
-3.63839e-07
0.000627553
-3.99184e-07
0.000648511
-4.42808e-07
0.000658981
-4.92698e-07
0.000669584
-5.47212e-07
0.000685844
-6.04248e-07
0.000702401
-6.61208e-07
0.000713671
-7.16427e-07
0.000730762
-7.67854e-07
0.000748179
-8.13553e-07
0.000765911
-8.51771e-07
0.000783959
-8.80988e-07
0.000802313
-9.00053e-07
0.000826832
-9.07787e-07
0.000845834
-9.03627e-07
0.000865071
-8.87249e-07
0.000890548
-8.58656e-07
0.000916353
-8.1861e-07
0.000936288
-7.67165e-07
0.000974891
-7.05415e-07
0.00101398
-6.34621e-07
0.0010598
-5.56585e-07
0.00111247
-4.74224e-07
0.00116574
-3.90749e-07
0.00122596
-3.09355e-07
0.00130624
-2.35286e-07
0.00138746
-1.73421e-07
0.00148934
-1.29529e-07
0.0016058
-1.08831e-07
0.00176403
-1.16675e-07
0.00196553
-1.55543e-07
0.00225306
-2.25993e-07
0.00269988
-2.90717e-07
0.00356053
0.00881786
8.55745e-06
-8.55746e-06
1.79445e-05
-9.38708e-06
2.64816e-05
-8.53709e-06
3.38681e-05
-7.38645e-06
3.99865e-05
-6.11845e-06
4.4791e-05
-4.80452e-06
4.82964e-05
-3.50539e-06
5.05501e-05
-2.25364e-06
5.16143e-05
-1.06427e-06
5.15735e-05
4.08283e-08
5.0517e-05
1.05652e-06
4.85137e-05
2.00331e-06
4.56284e-05
2.88525e-06
4.19388e-05
3.68961e-06
3.75563e-05
4.38248e-06
3.26658e-05
4.89055e-06
2.7615e-05
5.05081e-06
2.31127e-05
4.50226e-06
1.95143e-05
3.59835e-06
1.88254e-05
6.88984e-07
9.31766e-06
-1.78751e-05
1.82435e-05
-1.83129e-05
2.64484e-05
-1.67419e-05
3.35889e-05
-1.4527e-05
3.95489e-05
-1.20784e-05
4.43192e-05
-9.5748e-06
4.79313e-05
-7.11757e-06
5.04333e-05
-4.75565e-06
5.18747e-05
-2.50558e-06
5.22857e-05
-3.7018e-07
5.16963e-05
1.64586e-06
5.01486e-05
3.55103e-06
4.76852e-05
5.34867e-06
4.43531e-05
7.0217e-06
4.02121e-05
8.52348e-06
3.53354e-05
9.76726e-06
2.97745e-05
1.06117e-05
2.33728e-05
1.0904e-05
1.48577e-05
1.21134e-05
3.14833e-05
2.19977e-06
8.74407e-06
-2.66192e-05
1.71644e-05
-2.67332e-05
2.47882e-05
-2.43658e-05
3.13867e-05
-2.11255e-05
3.68848e-05
-1.75765e-05
4.1292e-05
-1.3982e-05
4.46485e-05
-1.0474e-05
4.70035e-05
-7.11066e-06
4.84054e-05
-3.90752e-06
4.88943e-05
-8.59001e-07
4.84992e-05
2.0409e-06
4.72452e-05
4.80505e-06
4.51544e-05
7.43945e-06
4.22407e-05
9.93548e-06
3.85051e-05
1.2259e-05
3.39274e-05
1.4345e-05
2.84335e-05
1.61056e-05
2.17901e-05
1.75473e-05
1.32667e-05
2.06368e-05
4.19844e-05
2.76564e-06
8.06871e-06
-3.46879e-05
1.58103e-05
-3.44748e-05
2.27329e-05
-3.12885e-05
2.86724e-05
-2.70649e-05
3.36015e-05
-2.25056e-05
3.75473e-05
-1.79279e-05
4.05554e-05
-1.34822e-05
4.26744e-05
-9.22967e-06
4.39487e-05
-5.18173e-06
4.44135e-05
-1.32384e-06
4.40948e-05
2.3596e-06
4.30144e-05
5.88542e-06
4.11886e-05
9.26533e-06
3.86209e-05
1.25031e-05
3.52949e-05
1.5585e-05
3.11669e-05
1.8473e-05
2.616e-05
2.11125e-05
2.01158e-05
2.35915e-05
1.24934e-05
2.82593e-05
5.13315e-05
3.14626e-06
7.3256e-06
-4.20135e-05
1.42722e-05
-4.14214e-05
2.0404e-05
-3.74203e-05
2.56204e-05
-3.22813e-05
2.99319e-05
-2.68172e-05
3.33776e-05
-2.13735e-05
3.60045e-05
-1.61091e-05
3.78597e-05
-1.10848e-05
3.8984e-05
-6.30603e-06
3.94077e-05
-1.74754e-06
3.91507e-05
2.61663e-06
3.82291e-05
6.80697e-06
3.66541e-05
1.08403e-05
3.44273e-05
1.47299e-05
3.15341e-05
1.84782e-05
2.79393e-05
2.20678e-05
2.35869e-05
2.54649e-05
1.83436e-05
2.88347e-05
1.16267e-05
3.49762e-05
5.96388e-05
3.31935e-06
6.51283e-06
-4.85263e-05
1.25891e-05
-4.74977e-05
1.78811e-05
-4.27122e-05
2.23487e-05
-3.67489e-05
2.60267e-05
-3.04952e-05
2.89585e-05
-2.43053e-05
3.1191e-05
-1.83416e-05
3.27699e-05
-1.26638e-05
3.37346e-05
-7.27065e-06
3.41116e-05
-2.12456e-06
3.39165e-05
2.81166e-06
3.31616e-05
7.56194e-06
3.18534e-05
1.21485e-05
2.99917e-05
1.65916e-05
2.75654e-05
2.09046e-05
2.45493e-05
2.50839e-05
2.08999e-05
2.91143e-05
1.64709e-05
3.32637e-05
1.05961e-05
4.08511e-05
6.69949e-05
3.23993e-06
5.64103e-06
-5.41674e-05
1.07982e-05
-5.26549e-05
1.52282e-05
-4.71422e-05
1.89412e-05
-4.04618e-05
2.19829e-05
-3.35369e-05
2.43962e-05
-2.67187e-05
2.62271e-05
-2.01724e-05
2.75218e-05
-1.39585e-05
2.8321e-05
-8.06988e-06
2.86512e-05
-2.45474e-06
2.85252e-05
2.93767e-06
2.79516e-05
8.1355e-06
2.69328e-05
1.31673e-05
2.54649e-05
1.80595e-05
2.35367e-05
2.28328e-05
2.11272e-05
2.74934e-05
1.81941e-05
3.20474e-05
1.45549e-05
3.69029e-05
9.44056e-06
4.59654e-05
7.35197e-05
2.91583e-06
4.72294e-06
-5.88903e-05
8.93064e-06
-5.68626e-05
1.24916e-05
-5.07032e-05
1.54526e-05
-4.34228e-05
1.78602e-05
-3.59444e-05
1.97545e-05
-2.8613e-05
2.11804e-05
-2.15983e-05
2.21857e-05
-1.49638e-05
2.28154e-05
-8.69965e-06
2.30998e-05
-2.73912e-06
2.30515e-05
2.98602e-06
2.2676e-05
8.511e-06
2.197e-05
1.38733e-05
2.09237e-05
1.91058e-05
1.95213e-05
2.42352e-05
1.77392e-05
2.92756e-05
1.55248e-05
3.42618e-05
1.26351e-05
3.97927e-05
8.18369e-06
5.04168e-05
7.93298e-05
2.37355e-06
3.76699e-06
-6.26573e-05
7.00454e-06
-6.01001e-05
9.694e-06
-5.33927e-05
1.19061e-05
-4.56349e-05
1.36827e-05
-3.77211e-05
1.50615e-05
-2.99918e-05
1.60845e-05
-2.26213e-05
1.67997e-05
-1.56791e-05
1.72584e-05
-9.15831e-06
1.74994e-05
-2.98015e-06
1.75394e-05
2.94601e-06
1.73806e-05
8.66983e-06
1.70114e-05
1.42425e-05
1.64131e-05
1.97041e-05
1.55613e-05
2.5087e-05
1.44232e-05
3.04137e-05
1.29242e-05
3.57607e-05
1.07315e-05
4.19854e-05
6.84037e-06
5.43079e-05
8.45481e-05
1.62205e-06
2.77454e-06
-6.54318e-05
5.02191e-06
-6.23475e-05
6.83317e-06
-5.52039e-05
8.29532e-06
-4.7097e-05
9.44516e-06
-3.8871e-05
1.03178e-05
-3.08645e-05
1.09495e-05
-2.32529e-05
1.1384e-05
-1.61136e-05
1.16757e-05
-9.45001e-06
1.18778e-05
-3.18219e-06
1.20184e-05
2.80535e-06
1.2096e-05
8.59232e-06
1.20875e-05
1.4251e-05
1.19624e-05
1.98292e-05
1.16834e-05
2.53661e-05
1.12025e-05
3.08945e-05
1.04108e-05
3.65524e-05
8.8528e-06
4.35434e-05
5.4252e-06
5.77355e-05
8.93563e-05
6.16975e-07
1.73847e-06
-6.71703e-05
2.96762e-06
-6.35767e-05
3.88492e-06
-5.61212e-05
4.59069e-06
-4.78028e-05
5.11882e-06
-3.93991e-05
5.50183e-06
-3.12475e-05
5.76684e-06
-2.35179e-05
5.94702e-06
-1.62938e-05
6.0907e-06
-9.59369e-06
6.26386e-06
-3.35534e-06
6.5156e-06
2.5536e-06
6.84502e-06
8.26289e-06
7.21822e-06
1.38778e-05
7.58992e-06
1.94575e-05
7.90294e-06
2.5053e-05
8.08526e-06
3.07122e-05
7.9821e-06
3.66556e-05
6.97039e-06
4.45552e-05
3.89052e-06
6.08153e-05
9.39055e-05
-6.58659e-07
6.40062e-07
-6.78104e-05
8.09564e-07
-6.37462e-05
8.08873e-07
-5.61206e-05
7.46299e-07
-4.77402e-05
6.5789e-07
-3.93107e-05
5.72603e-07
-3.11622e-05
5.08036e-07
-2.34534e-05
4.81553e-07
-1.62673e-05
5.2097e-07
-9.63311e-06
6.85743e-07
-3.52011e-06
1.05093e-06
2.18842e-06
1.63603e-06
7.67779e-06
2.40342e-06
1.31104e-05
3.29379e-06
1.85671e-05
4.21663e-06
2.41302e-05
5.05489e-06
2.98739e-05
5.59763e-06
3.61128e-05
4.98796e-06
4.51648e-05
2.08524e-06
6.37181e-05
9.81094e-05
-2.11861e-06
-5.57396e-07
-6.7253e-05
-1.4974e-06
-6.28062e-05
-2.45168e-06
-5.51663e-05
-3.30368e-06
-4.68882e-05
-4.01144e-06
-3.86029e-05
-4.54871e-06
-3.06249e-05
-4.90362e-06
-2.30985e-05
-5.07315e-06
-1.60978e-05
-5.05651e-06
-9.64975e-06
-4.83352e-06
-3.74311e-06
-4.34513e-06
1.70004e-06
-3.53612e-06
6.86878e-06
-2.41229e-06
1.19866e-05
-1.02828e-06
1.71831e-05
5.13453e-07
2.25885e-05
2.03424e-06
2.83532e-05
3.15195e-06
3.49951e-05
2.73802e-06
4.55788e-05
-1.76824e-07
6.66329e-05
0.000101596
-3.66342e-06
-1.88814e-06
-6.53648e-05
-4.00776e-06
-6.06865e-05
-5.97398e-06
-5.32001e-05
-7.65991e-06
-4.52023e-05
-9.01483e-06
-3.7248e-05
-1.00128e-05
-2.9627e-05
-1.06441e-05
-2.24671e-05
-1.0915e-05
-1.58269e-05
-1.08479e-05
-9.71684e-06
-1.0475e-05
-4.11593e-06
-9.79672e-06
1.02171e-06
-8.74733e-06
5.81939e-06
-7.28717e-06
1.05264e-05
-5.46131e-06
1.53573e-05
-3.36715e-06
2.04943e-05
-1.22847e-06
2.62145e-05
2.58078e-07
3.35086e-05
-2.26196e-07
4.6063e-05
-2.82473e-06
6.92314e-05
0.000103982
-5.21043e-06
-3.36951e-06
-6.19953e-05
-6.78121e-06
-5.72748e-05
-9.86251e-06
-5.01188e-05
-1.24703e-05
-4.25945e-05
-1.4547e-05
-3.51713e-05
-1.60676e-05
-2.81063e-05
-1.70252e-05
-2.15095e-05
-1.743e-05
-1.54222e-05
-1.73111e-05
-9.83568e-06
-1.67251e-05
-4.70201e-06
-1.57612e-05
5.78998e-08
-1.44059e-05
4.46402e-06
-1.25764e-05
8.69693e-06
-1.03106e-05
1.30915e-05
-7.74214e-06
1.79259e-05
-5.25705e-06
2.37294e-05
-3.77e-06
3.20215e-05
-4.15549e-06
4.64485e-05
-5.66343e-06
7.07394e-05
0.000104974
-6.65595e-06
-5.03265e-06
-5.69627e-05
-9.89209e-06
-5.24154e-05
-1.42304e-05
-4.57805e-05
-1.78891e-05
-3.89358e-05
-2.08089e-05
-3.22515e-05
-2.29726e-05
-2.59426e-05
-2.43839e-05
-2.00981e-05
-2.50631e-05
-1.4743e-05
-2.5047e-05
-9.85178e-06
-2.43911e-05
-5.35795e-06
-2.31545e-05
-1.17865e-06
-2.14255e-05
2.73503e-06
-1.92303e-05
6.50169e-06
-1.66066e-05
1.04678e-05
-1.37603e-05
1.50795e-05
-1.11695e-05
2.11387e-05
-9.53723e-06
3.03892e-05
-8.98174e-06
4.5893e-05
-8.63407e-06
7.03917e-05
0.000104109
-7.76866e-06
-6.89721e-06
-5.00654e-05
-1.33938e-05
-4.59188e-05
-1.91648e-05
-4.00094e-05
-2.40371e-05
-3.40635e-05
-2.79556e-05
-2.8333e-05
-3.0922e-05
-2.29762e-05
-3.29623e-05
-1.80579e-05
-3.41156e-05
-1.35897e-05
-3.4428e-05
-9.53945e-06
-3.39478e-05
-5.8381e-06
-3.27383e-05
-2.38815e-06
-3.09308e-05
9.27483e-07
-2.86258e-05
4.19672e-06
-2.58785e-05
7.72049e-06
-2.28872e-05
1.20883e-05
-1.99732e-05
1.82246e-05
-1.73711e-05
2.77871e-05
-1.47727e-05
4.32946e-05
-1.16244e-05
6.72434e-05
0.000100677
-8.193e-06
-8.95912e-06
-4.11063e-05
-1.73093e-05
-3.75687e-05
-2.47083e-05
-3.26104e-05
-3.09719e-05
-2.77999e-05
-3.60581e-05
-2.32468e-05
-3.99992e-05
-1.90351e-05
-4.28571e-05
-1.51999e-05
-4.47043e-05
-1.17425e-05
-4.56121e-05
-8.63169e-06
-4.56445e-05
-5.80569e-06
-4.4866e-05
-3.16665e-06
-4.33641e-05
-5.74451e-07
-4.12515e-05
2.08415e-06
-3.85832e-05
5.05225e-06
-3.54048e-05
8.90978e-06
-3.17324e-05
1.45523e-05
-2.73618e-05
2.34165e-05
-2.17455e-05
3.76784e-05
-1.46454e-05
6.01433e-05
9.35381e-05
-7.50614e-06
-1.12525e-05
-2.98538e-05
-2.16543e-05
-2.71669e-05
-3.08405e-05
-2.34242e-05
-3.8646e-05
-1.99944e-05
-4.5055e-05
-1.68378e-05
-5.01363e-05
-1.39537e-05
-5.399e-05
-1.13463e-05
-5.67236e-05
-9.00887e-06
-5.84383e-05
-6.91697e-06
-5.92192e-05
-5.02478e-06
-5.91279e-05
-3.25796e-06
-5.81967e-05
-1.50561e-06
-5.65005e-05
3.87931e-07
-5.40539e-05
2.60561e-06
-5.07028e-05
5.55876e-06
-4.61544e-05
1.00038e-05
-3.97966e-05
1.70587e-05
-3.0643e-05
2.85248e-05
-1.82263e-05
4.77266e-05
8.0571e-05
-5.25924e-06
-1.39073e-05
-1.59465e-05
-2.63864e-05
-1.46878e-05
-3.73633e-05
-1.24473e-05
-4.67288e-05
-1.0629e-05
-5.45307e-05
-9.03589e-06
-6.08771e-05
-7.60735e-06
-6.58939e-05
-6.32948e-06
-6.97113e-05
-5.19154e-06
-7.24513e-05
-4.17694e-06
-7.42156e-05
-3.26045e-06
-7.50727e-05
-2.40084e-06
-7.50461e-05
-1.53225e-06
-7.41054e-05
-5.52769e-07
-7.2183e-05
6.83162e-07
-6.90167e-05
2.39246e-06
-6.40186e-05
5.0057e-06
-5.61533e-05
9.19345e-06
-4.36383e-05
1.60098e-05
-2.39237e-05
2.8012e-05
5.6406e-05
2.41325e-07
-1.59465e-05
-3.06344e-05
-4.30816e-05
-5.37106e-05
-6.27465e-05
-7.03538e-05
-7.66833e-05
-8.18748e-05
-8.60518e-05
-8.93122e-05
-9.17131e-05
-9.32453e-05
-9.37981e-05
-9.31149e-05
-9.07225e-05
-8.57168e-05
-7.65233e-05
-6.05135e-05
-3.25016e-05
2.39045e-05
4.48374e-07
0.000181731
-2.10103e-07
0.000253553
-6.29022e-07
0.000299
-8.98948e-07
0.000330196
-1.03586e-06
0.000357283
-1.10442e-06
0.000379548
-1.16625e-06
0.000398684
-1.21211e-06
0.000415949
-1.22967e-06
0.000427645
-1.21338e-06
0.000446984
-1.16714e-06
0.0004568
-1.09771e-06
0.000470294
-1.01263e-06
0.000483195
-9.18881e-07
0.000495562
-8.22416e-07
0.000507452
-7.28105e-07
0.000518922
-6.39828e-07
0.000530026
-5.60574e-07
0.000540823
-4.92557e-07
0.000551363
-4.36856e-07
0.000566782
-3.95373e-07
0.000571924
-3.67721e-07
0.000587167
-3.54191e-07
0.00059726
-3.54201e-07
0.000607326
-3.66951e-07
0.000622706
-3.90929e-07
0.000627577
-4.25303e-07
0.000648545
-4.67917e-07
0.000659024
-5.16791e-07
0.000669632
-5.70307e-07
0.000685898
-6.26389e-07
0.000702457
-6.82466e-07
0.000713727
-7.36884e-07
0.000730817
-7.87601e-07
0.000748229
-8.3269e-07
0.000765956
-8.70398e-07
0.000783997
-8.992e-07
0.000802342
-9.17942e-07
0.000826851
-9.25436e-07
0.000845841
-9.21107e-07
0.000865066
-9.04618e-07
0.000890532
-8.75959e-07
0.000916325
-8.35882e-07
0.000936248
-7.84422e-07
0.00097484
-7.22653e-07
0.00101392
-6.51821e-07
0.00105973
-5.73704e-07
0.00111239
-4.91198e-07
0.00116566
-4.07485e-07
0.00122588
-3.25701e-07
0.00130616
-2.51064e-07
0.00138738
-1.88374e-07
0.00148927
-1.43408e-07
0.00160575
-1.21252e-07
0.001764
-1.2747e-07
0.00196553
-1.6418e-07
0.00225309
-2.32377e-07
0.00269994
-2.93224e-07
0.0035606
0.00881756
1.10532e-06
0.000182825
2.78986e-07
0.000254379
-3.47696e-07
0.000299626
-7.45868e-07
0.000330594
-9.608e-07
0.000357497
-1.08143e-06
0.000379668
-1.17325e-06
0.000398775
-1.23794e-06
0.000416014
-1.26675e-06
0.000427674
-1.25907e-06
0.000446977
-1.21875e-06
0.00045676
-1.15308e-06
0.000470228
-1.06999e-06
0.000483112
-9.76829e-07
0.000495469
-8.79922e-07
0.000507355
-7.84463e-07
0.000518827
-6.94602e-07
0.000529936
-6.13553e-07
0.000540742
-5.43707e-07
0.000551293
-4.86264e-07
0.000566724
-4.43269e-07
0.000571881
-4.14383e-07
0.000587138
-3.99965e-07
0.000597246
-3.99463e-07
0.000607326
-4.12088e-07
0.000622719
-4.36324e-07
0.000627601
-4.71326e-07
0.00064858
-5.14896e-07
0.000659068
-5.65008e-07
0.000669683
-6.19994e-07
0.000685953
-6.77718e-07
0.000702515
-7.35518e-07
0.000713784
-7.91678e-07
0.000730873
-8.44075e-07
0.000748282
-8.907e-07
0.000766003
-9.29723e-07
0.000784036
-9.59543e-07
0.000802372
-9.7894e-07
0.00082687
-9.86665e-07
0.000845849
-9.82098e-07
0.000865062
-9.64865e-07
0.000890515
-9.34944e-07
0.000916295
-8.93096e-07
0.000936206
-8.39338e-07
0.000974786
-7.74768e-07
0.00101385
-7.00669e-07
0.00105965
-6.18871e-07
0.00111231
-5.32383e-07
0.00116557
-4.44496e-07
0.00122579
-3.58448e-07
0.00130607
-2.79672e-07
0.00138731
-2.13145e-07
0.00148921
-1.64901e-07
0.0016057
-1.40247e-07
0.00176398
-1.45071e-07
0.00196554
-1.81624e-07
0.00225313
-2.50781e-07
0.00270001
-3.11491e-07
0.00356066
0.00881725
1.49863e-06
0.000184092
6.17345e-07
0.000255261
-1.49769e-07
0.000300394
-6.38667e-07
0.000331083
-9.13917e-07
0.000357773
-1.07492e-06
0.000379829
-1.18951e-06
0.00039889
-1.26676e-06
0.000416091
-1.30512e-06
0.000427712
-1.30391e-06
0.000446975
-1.2683e-06
0.000456725
-1.20585e-06
0.000470166
-1.12467e-06
0.00048303
-1.03232e-06
0.000495376
-9.35353e-07
0.000507258
-8.39211e-07
0.00051873
-7.4825e-07
0.000529845
-6.65868e-07
0.000540659
-5.94602e-07
0.000551222
-5.35766e-07
0.000566666
-4.91524e-07
0.000571837
-4.61591e-07
0.000587108
-4.46385e-07
0.00059723
-4.45392e-07
0.000607325
-4.57836e-07
0.000622731
-4.82204e-07
0.000627626
-5.17644e-07
0.000648615
-5.61934e-07
0.000659112
-6.13007e-07
0.000669734
-6.69159e-07
0.000686009
-7.28199e-07
0.000702574
-7.87399e-07
0.000713844
-8.44984e-07
0.00073093
-8.98765e-07
0.000748335
-9.46662e-07
0.000766051
-9.86774e-07
0.000784076
-1.01743e-06
0.000802403
-1.03737e-06
0.00082689
-1.04526e-06
0.000845857
-1.04046e-06
0.000865057
-1.02255e-06
0.000890497
-9.91498e-07
0.000916264
-9.48071e-07
0.000936163
-8.9226e-07
0.00097473
-8.25189e-07
0.00101379
-7.48159e-07
0.00105958
-6.63048e-07
0.00111223
-5.72956e-07
0.00116548
-4.81274e-07
0.0012257
-3.91317e-07
0.00130598
-3.08702e-07
0.00138722
-2.38566e-07
0.00148914
-1.87161e-07
0.00160565
-1.60008e-07
0.00176395
-1.63256e-07
0.00196554
-1.99342e-07
0.00225317
-2.6888e-07
0.00270008
-3.29017e-07
0.00356072
0.00881692
1.67375e-06
0.000185565
7.67353e-07
0.000256167
-6.71448e-08
0.000301228
-5.9913e-07
0.000331615
-9.08176e-07
0.000358082
-1.09283e-06
0.000380014
-1.22007e-06
0.000399017
-1.30493e-06
0.000416176
-1.34703e-06
0.000427754
-1.34951e-06
0.000446978
-1.31694e-06
0.000456692
-1.25683e-06
0.000470106
-1.17721e-06
0.000482951
-1.08568e-06
0.000495285
-9.8889e-07