/*--------------------------------*- C++ -*----------------------------------*\
| =========                 |                                                 |
| \\      /  F ield         | OpenFOAM: The Open Source CFD Toolbox           |
|  \\    /   O peration     | Version:  3.0.1                                 |
|   \\  /    A nd           | Web:      www.OpenFOAM.org                      |
|    \\/     M anipulation  |                                                 |
\*---------------------------------------------------------------------------*/
FoamFile
{
    version     2.0;
    format      ascii;
    class       volScalarField;
    location    "2600";
    object      TS;
}
// * * * * * * * * * * * * * * * * * * * * * * * * * * * * * * * * * * * * * //

dimensions      [1 -3 0 0 0 0 0];

internalField   nonuniform List<scalar> 
14431
(
3.10151e-25
2.36549e-24
1.42369e-23
6.9357e-23
2.79889e-22
8.26336e-22
2.0372e-21
4.51407e-21
9.27123e-21
1.79608e-20
3.32107e-20
5.86912e-20
9.99436e-20
1.64521e-19
2.6248e-19
4.06712e-19
6.13126e-19
9.00569e-19
1.29041e-18
1.808e-18
2.47614e-18
3.31596e-18
4.35158e-18
5.59161e-18
7.04577e-18
8.70163e-18
1.05453e-17
1.25504e-17
1.46499e-17
1.67884e-17
1.88966e-17
2.0879e-17
2.26501e-17
2.41297e-17
2.52382e-17
2.59119e-17
2.61085e-17
2.58102e-17
2.50182e-17
2.37739e-17
2.21367e-17
2.01787e-17
1.80007e-17
1.5693e-17
1.33324e-17
1.10101e-17
8.8052e-18
6.79387e-18
5.03514e-18
3.55538e-18
2.37082e-18
1.47579e-18
8.43823e-19
4.31902e-19
1.90491e-19
6.80981e-20
1.77499e-20
2.79292e-21
9.55466e-23
1.74528e-24
1.22019e-23
6.79226e-23
3.10157e-22
1.15569e-21
3.3088e-21
7.90643e-21
1.71745e-20
3.47372e-20
6.64326e-20
1.2147e-19
2.12572e-19
3.58842e-19
5.86121e-19
9.28586e-19
1.4298e-18
2.1432e-18
3.13174e-18
4.46644e-18
6.23126e-18
8.50094e-18
1.1344e-17
1.4839e-17
1.90118e-17
2.38922e-17
2.94359e-17
3.55941e-17
4.22774e-17
4.92612e-17
5.63604e-17
6.33451e-17
6.98995e-17
7.57414e-17
8.06073e-17
8.42363e-17
8.64199e-17
8.7021e-17
8.59826e-17
8.33118e-17
7.91464e-17
7.36844e-17
6.71644e-17
5.99199e-17
5.22493e-17
4.44052e-17
3.66892e-17
2.93624e-17
2.26763e-17
1.68261e-17
1.18994e-17
7.95052e-18
4.96171e-18
2.84648e-18
1.46342e-18
6.49345e-19
2.34092e-19
6.17538e-20
9.8819e-21
3.43565e-22
5.82316e-24
3.77803e-23
1.94943e-22
8.31208e-22
2.87421e-21
7.84408e-21
1.82428e-20
3.88168e-20
7.71906e-20
1.45488e-19
2.62636e-19
4.54445e-19
7.59433e-19
1.22922e-18
1.93154e-18
2.95213e-18
4.39541e-18
6.38362e-18
9.05364e-18
1.25668e-17
1.70647e-17
2.26757e-17
2.9547e-17
3.77222e-17
4.72524e-17
5.80453e-17
7.00004e-17
8.29397e-17
9.64258e-17
1.101e-16
1.23518e-16
1.36075e-16
1.47231e-16
1.56484e-16
1.6334e-16
1.67404e-16
1.68422e-16
1.6629e-16
1.61028e-16
1.52906e-16
1.42306e-16
1.29688e-16
1.15692e-16
1.00891e-16
8.57652e-17
7.08933e-17
5.67732e-17
4.38856e-17
3.26044e-17
2.30961e-17
1.54656e-17
9.67982e-18
5.5748e-18
2.88115e-18
1.28767e-18
4.6894e-19
1.25522e-19
2.05081e-20
7.26798e-22
1.54158e-23
9.41567e-23
4.54614e-22
1.82024e-21
5.90935e-21
1.55044e-20
3.52601e-20
7.3706e-20
1.44411e-19
2.68719e-19
4.7964e-19
8.21687e-19
1.36092e-18
2.18514e-18
3.40881e-18
5.17583e-18
7.66043e-18
1.10653e-17
1.5616e-17
2.15776e-17
2.91793e-17
3.86272e-17
5.01572e-17
6.3831e-17
7.97234e-17
9.76704e-17
1.17497e-16
1.38899e-16
1.61149e-16
1.83652e-16
2.05676e-16
2.26225e-16
2.44419e-16
2.5944e-16
2.70487e-16
2.76925e-16
2.78347e-16
2.74597e-16
2.65719e-16
2.52165e-16
2.34571e-16
2.13693e-16
1.90586e-16
1.66182e-16
1.41271e-16
1.16796e-16
9.35682e-17
7.23723e-17
5.38167e-17
3.81708e-17
2.56048e-17
1.60645e-17
9.28226e-18
4.81896e-18
2.1674e-18
7.96483e-19
2.16024e-19
3.59778e-20
1.29879e-21
3.54437e-23
2.0606e-22
9.38572e-22
3.55242e-21
1.0945e-20
2.78163e-20
6.2089e-20
1.27858e-19
2.47358e-19
4.55265e-19
8.04772e-19
1.36693e-18
2.2467e-18
3.58261e-18
5.5542e-18
8.38593e-18
1.23481e-17
1.77536e-17
2.49485e-17
3.43384e-17
4.62695e-17
6.10498e-17
7.90325e-17
1.00298e-16
1.24946e-16
1.52709e-16
1.83302e-16
2.16246e-16
2.50412e-16
2.84878e-16
3.18521e-16
3.49817e-16
3.77425e-16
4.00106e-16
4.16649e-16
4.26103e-16
4.27869e-16
4.21726e-16
4.07762e-16
3.86689e-16
3.59487e-16
3.2732e-16
2.91802e-16
2.54358e-16
2.16186e-16
1.78719e-16
1.4319e-16
1.10786e-16
8.24263e-17
5.85132e-17
3.93008e-17
2.47029e-17
1.4311e-17
7.45733e-18
3.37194e-18
1.24877e-18
3.42616e-19
5.80461e-20
2.13183e-21
7.38778e-23
4.12337e-22
1.78411e-21
6.42543e-21
1.89578e-20
4.69418e-20
1.03145e-19
2.09746e-19
4.01468e-19
7.32085e-19
1.28354e-18
2.16439e-18
3.53441e-18
5.60324e-18
8.64119e-18
1.29846e-17
1.90368e-17
2.7262e-17
3.81717e-17
5.23633e-17
7.03404e-17
9.25474e-17
1.19493e-16
1.51275e-16
1.88023e-16
2.29316e-16
2.74712e-16
3.23484e-16
3.73942e-16
4.2472e-16
4.74151e-16
5.19991e-16
5.60276e-16
5.93195e-16
6.1699e-16
6.30292e-16
6.32251e-16
6.22574e-16
6.01425e-16
5.69879e-16
5.29399e-16
4.81709e-16
4.2919e-16
3.7393e-16
3.17685e-16
2.62551e-16
2.10323e-16
1.62727e-16
1.21097e-16
8.60065e-17
5.78156e-17
3.63888e-17
2.11232e-17
1.10396e-17
5.01358e-18
1.8689e-18
5.17864e-19
8.90717e-20
3.32331e-21
1.43247e-22
7.72231e-22
3.19225e-21
1.10072e-20
3.13306e-20
7.59279e-20
1.64641e-19
3.31293e-19
6.2847e-19
1.13716e-18
1.98007e-18
3.31873e-18
5.39002e-18
8.5033e-18
1.30557e-17
1.95395e-17
2.85422e-17
4.07378e-17
5.68648e-17
7.77844e-17
1.04214e-16
1.36779e-16
1.76199e-16
2.22587e-16
2.76103e-16
3.36103e-16
4.01922e-16
4.72475e-16
5.45301e-16
6.18406e-16
6.89377e-16
7.54983e-16
8.12408e-16
8.59066e-16
8.92462e-16
9.1067e-16
9.12517e-16
8.97633e-16
8.66304e-16
8.20122e-16
7.61221e-16
6.92103e-16
6.16202e-16
5.36512e-16
4.55548e-16
3.76301e-16
3.01329e-16
2.33081e-16
1.73438e-16
1.23199e-16
8.28549e-17
5.21936e-17
3.03413e-17
1.58934e-17
7.24329e-18
2.71473e-18
7.58631e-19
1.3222e-19
5.00418e-21
2.65164e-22
1.37582e-21
5.4523e-21
1.81e-20
5.00069e-20
1.19048e-19
2.55293e-19
5.0924e-19
9.5892e-19
1.72395e-18
2.98478e-18
4.97754e-18
8.04772e-18
1.26445e-17
1.93425e-17
2.88514e-17
4.20151e-17
5.9798e-17
8.32527e-17
1.13603e-16
1.51857e-16
1.98888e-16
2.55694e-16
3.224e-16
3.99195e-16
4.85116e-16
5.7917e-16
6.79769e-16
7.8337e-16
8.87112e-16
9.87546e-16
1.08008e-15
1.16073e-15
1.22587e-15
1.27199e-15
1.29644e-15
1.29762e-15
1.27508e-15
1.2293e-15
1.16262e-15
1.0781e-15
9.79333e-16
8.71199e-16
7.57932e-16
6.43081e-16
5.30857e-16
4.24844e-16
3.28466e-16
2.44336e-16
1.73535e-16
1.16721e-16
7.35612e-17
4.28038e-17
2.24591e-17
1.02638e-17
3.86389e-18
1.08751e-18
1.91732e-19
7.34992e-21
5.2197e-22
2.37271e-21
8.97523e-21
2.88221e-20
7.76916e-20
1.82262e-19
3.87281e-19
7.67045e-19
1.43572e-18
2.56768e-18
4.42497e-18
7.34892e-18
1.18378e-17
1.85371e-17
2.82701e-17
4.205e-17
6.10781e-17
8.6722e-17
1.20469e-16
1.64043e-16
2.1885e-16
2.86096e-16
3.67156e-16
4.62156e-16
5.7131e-16
6.93188e-16
8.26331e-16
9.68433e-16
1.11444e-15
1.26028e-15
1.40107e-15
1.53034e-15
1.64251e-15
1.73251e-15
1.7955e-15
1.82783e-15
1.82737e-15
1.7936e-15
1.72731e-15
1.63188e-15
1.5117e-15
1.37185e-15
1.21922e-15
1.05974e-15
8.98378e-16
7.40998e-16
5.92575e-16
4.57845e-16
3.40393e-16
2.41664e-16
1.62516e-16
1.02435e-16
5.96376e-17
3.13281e-17
1.43469e-17
5.42033e-18
1.53473e-18
2.73282e-19
1.05951e-20
1.95819e-21
4.10454e-21
1.43385e-20
4.46986e-20
1.18094e-19
2.73798e-19
5.77529e-19
1.13745e-18
2.11896e-18
3.77395e-18
6.47975e-18
1.0726e-17
1.72259e-17
2.6901e-17
4.09226e-17
6.07286e-17
8.80187e-17
1.24721e-16
1.72925e-16
2.35047e-16
3.13034e-16
4.08544e-16
5.23461e-16
6.57887e-16
8.12048e-16
9.83845e-16
1.17114e-15
1.37062e-15
1.5751e-15
1.77882e-15
1.97491e-15
2.15431e-15
2.30926e-15
2.43272e-15
2.51804e-15
2.56025e-15
2.55654e-15
2.50634e-15
2.41092e-15
2.27516e-15
2.10529e-15
1.90847e-15
1.69438e-15
1.47126e-15
1.24602e-15
1.02677e-15
8.20379e-16
6.33337e-16
4.70525e-16
3.33854e-16
2.24418e-16
1.41429e-16
8.23552e-17
4.3293e-17
1.98566e-17
7.52304e-18
2.14066e-18
3.84441e-19
1.50522e-20
9.67455e-19
9.56886e-19
9.46249e-19
9.35976e-19
9.26254e-19
9.17177e-19
9.08778e-19
9.01058e-19
8.93995e-19
8.87516e-19
8.81131e-19
8.74823e-19
8.68579e-19
8.62376e-19
8.56184e-19
8.49965e-19
8.43612e-19
8.36138e-19
8.14749e-19
6.60341e-19
9.7457e-19
9.59163e-19
9.43307e-19
9.28243e-19
9.14406e-19
9.01969e-19
8.90984e-19
8.81435e-19
8.73268e-19
8.66386e-19
8.60168e-19
8.54384e-19
8.48991e-19
8.43933e-19
8.3913e-19
8.34461e-19
8.29665e-19
8.23023e-19
7.9479e-19
6.21762e-19
9.82768e-19
9.61804e-19
9.40106e-19
9.19694e-19
9.0124e-19
8.85003e-19
8.71058e-19
8.59372e-19
8.49846e-19
8.42294e-19
8.3602e-19
8.30606e-19
8.25987e-19
8.22088e-19
8.18797e-19
8.15936e-19
8.13099e-19
8.07809e-19
7.74817e-19
5.9057e-19
9.90734e-19
9.64123e-19
9.36371e-19
9.10366e-19
8.87017e-19
8.66706e-19
8.49578e-19
8.35627e-19
8.24732e-19
8.16634e-19
8.10494e-19
8.05708e-19
8.02119e-19
7.99584e-19
7.97945e-19
7.9699e-19
7.96198e-19
7.92278e-19
7.55136e-19
5.64744e-19
9.9856e-19
9.66336e-19
9.32543e-19
9.00898e-19
8.72506e-19
8.47906e-19
8.27372e-19
8.10977e-19
7.98615e-19
7.89966e-19
7.84062e-19
7.80109e-19
7.77829e-19
7.76949e-19
7.77209e-19
7.78315e-19
7.79587e-19
7.76816e-19
7.35366e-19
5.41904e-19
1.00638e-18
9.68729e-19
9.29107e-19
8.91909e-19
8.58399e-19
8.29328e-19
8.05174e-19
7.86156e-19
7.72228e-19
7.63024e-19
7.57437e-19
7.54473e-19
7.53694e-19
7.54673e-19
7.57002e-19
7.60257e-19
7.63527e-19
7.61535e-19
7.15201e-19
5.20859e-19
1.01426e-18
9.71535e-19
9.2646e-19
8.83892e-19
8.45249e-19
8.11564e-19
7.83589e-19
7.61764e-19
7.46164e-19
7.36405e-19
7.31237e-19
7.29415e-19
7.30299e-19
7.33259e-19
7.3772e-19
7.43097e-19
7.48189e-19
7.46445e-19
6.94414e-19
5.01152e-19
1.02227e-18
9.74945e-19
9.24917e-19
8.77248e-19
8.33554e-19
7.95204e-19
7.63261e-19
7.38453e-19
7.21064e-19
7.10742e-19
7.06097e-19
7.05568e-19
7.0823e-19
7.13211e-19
7.19748e-19
7.2709e-19
7.33694e-19
7.31465e-19
6.72845e-19
4.82759e-19
1.03045e-18
9.79109e-19
9.24727e-19
8.7234e-19
8.23838e-19
7.80931e-19
7.44978e-19
7.17043e-19
6.97733e-19
6.86816e-19
6.82778e-19
6.83652e-19
6.88123e-19
6.95036e-19
7.03448e-19
7.1245e-19
7.20104e-19
7.164e-19
6.50419e-19
4.66021e-19
1.03882e-18
9.84144e-19
9.261e-19
8.69536e-19
8.16693e-19
7.69564e-19
7.2973e-19
6.9859e-19
6.77206e-19
6.65615e-19
6.62212e-19
6.64491e-19
6.70642e-19
6.79216e-19
6.89126e-19
6.99323e-19
7.07395e-19
7.00907e-19
6.27225e-19
4.5171e-19
1.04742e-18
9.90149e-19
9.29235e-19
8.69243e-19
8.128e-19
7.62068e-19
7.18728e-19
6.84446e-19
6.6082e-19
6.4837e-19
6.45456e-19
6.48911e-19
6.56364e-19
6.6611e-19
6.76966e-19
6.87744e-19
6.95402e-19
6.84459e-19
6.03584e-19
4.407e-19
1.05623e-18
9.9721e-19
9.34344e-19
8.71924e-19
8.12921e-19
7.59536e-19
7.13415e-19
6.76328e-19
6.50302e-19
6.36521e-19
6.33496e-19
6.37445e-19
6.45503e-19
6.5575e-19
6.66906e-19
6.77563e-19
6.83729e-19
6.66415e-19
5.80571e-19
4.36118e-19
1.06528e-18
1.00542e-18
9.4168e-19
8.78106e-19
8.17886e-19
7.63143e-19
7.15398e-19
6.76323e-19
6.47944e-19
6.31788e-19
6.26938e-19
6.29879e-19
6.37406e-19
6.47373e-19
6.58323e-19
6.68309e-19
6.71616e-19
6.46389e-19
5.60692e-19
4.44436e-19
1.07506e-18
1.01595e-18
9.528e-19
8.89597e-19
8.29633e-19
7.7488e-19
7.26645e-19
6.86278e-19
6.55412e-19
6.3558e-19
6.26908e-19
6.27161e-19
6.32686e-19
6.41071e-19
6.50521e-19
6.58588e-19
6.57833e-19
6.25379e-19
5.48775e-19
4.75631e-19
1.08629e-18
1.02951e-18
9.68575e-19
9.07467e-19
8.49447e-19
7.9629e-19
7.49019e-19
7.0852e-19
6.7577e-19
6.51807e-19
6.37331e-19
6.32577e-19
6.33974e-19
6.38785e-19
6.44766e-19
6.48643e-19
6.42119e-19
6.10061e-19
5.58722e-19
5.42155e-19
1.09916e-18
1.04657e-18
9.89819e-19
9.32857e-19
8.78791e-19
8.2918e-19
7.8478e-19
7.46042e-19
7.13324e-19
6.87002e-19
6.67531e-19
6.55485e-19
6.50466e-19
6.49261e-19
6.49493e-19
6.48036e-19
6.3958e-19
6.20192e-19
6.06899e-19
6.62988e-19
1.11388e-18
1.06768e-18
1.01751e-18
9.67148e-19
9.19419e-19
8.75673e-19
8.3647e-19
8.01975e-19
7.72143e-19
7.46832e-19
7.25904e-19
7.09324e-19
6.99081e-19
6.92461e-19
6.8782e-19
6.83874e-19
6.80206e-19
6.82051e-19
7.16139e-19
8.63396e-19
1.13062e-18
1.09345e-18
1.05277e-18
1.01198e-18
9.7341e-19
9.38207e-19
9.06823e-19
8.79317e-19
8.55504e-19
8.35062e-19
8.17611e-19
8.02811e-19
7.92083e-19
7.85483e-19
7.81953e-19
7.82381e-19
7.9084e-19
8.20281e-19
9.09334e-19
1.16701e-18
1.14951e-18
1.12447e-18
1.09687e-18
1.06926e-18
1.04329e-18
1.01982e-18
9.99268e-19
9.8173e-19
9.67109e-19
9.55191e-19
9.45719e-19
9.38478e-19
9.33424e-19
9.33759e-19
9.39183e-19
9.52416e-19
9.80984e-19
1.04392e-18
1.19196e-18
1.573e-18
1.17047e-18
1.16113e-18
1.15093e-18
1.14102e-18
1.13213e-18
1.12476e-18
1.11922e-18
1.11568e-18
1.11423e-18
1.1149e-18
1.11773e-18
1.12285e-18
1.1306e-18
1.14271e-18
1.16308e-18
1.19498e-18
1.24784e-18
1.34368e-18
1.53956e-18
2.02584e-18
1.19292e-18
1.20219e-18
1.21355e-18
1.22587e-18
1.23927e-18
1.25395e-18
1.2701e-18
1.28792e-18
1.30763e-18
1.32951e-18
1.35388e-18
1.38114e-18
1.41184e-18
1.44669e-18
1.48876e-18
1.54355e-18
1.6197e-18
1.73615e-18
1.94292e-18
2.46981e-18
2.08219e-20
7.57738e-21
2.21256e-20
6.71612e-20
1.74771e-19
4.01707e-19
8.42822e-19
1.65321e-18
3.06911e-18
5.44937e-18
9.33018e-18
1.54051e-17
2.46828e-17
3.84625e-17
5.83921e-17
8.64888e-17
1.2513e-16
1.77006e-16
2.45016e-16
3.32511e-16
4.42161e-16
5.76214e-16
7.3722e-16
9.25225e-16
1.14043e-15
1.3798e-15
1.64024e-15
1.91702e-15
2.20008e-15
2.48136e-15
2.75128e-15
2.99731e-15
3.20877e-15
3.37601e-15
3.49e-15
3.54406e-15
3.53457e-15
3.46092e-15
3.32515e-15
3.13421e-15
2.89683e-15
2.62301e-15
2.32617e-15
2.01765e-15
1.70693e-15
1.40511e-15
1.12154e-15
8.65011e-16
6.42081e-16
4.55224e-16
3.0581e-16
1.9264e-16
1.12161e-16
5.89796e-17
2.70782e-17
1.02805e-17
2.9368e-18
5.31172e-19
2.10012e-20
4.51297e-20
1.33832e-20
3.35635e-20
9.93483e-20
2.55086e-19
5.81769e-19
1.21468e-18
2.37385e-18
4.39323e-18
7.77883e-18
1.32849e-17
2.18841e-17
3.49887e-17
5.44126e-17
8.24511e-17
1.21906e-16
1.76071e-16
2.48657e-16
3.43654e-16
4.65655e-16
6.18283e-16
8.04553e-16
1.02788e-15
1.28818e-15
1.58559e-15
1.91573e-15
2.27422e-15
2.65434e-15
3.04217e-15
3.42652e-15
3.79419e-15
4.12804e-15
4.41349e-15
4.6375e-15
4.78792e-15
4.85591e-15
4.83682e-15
4.73015e-15
4.53901e-15
4.27322e-15
3.9449e-15
3.56786e-15
3.1605e-15
2.73827e-15
2.31402e-15
1.90283e-15
1.51723e-15
1.16904e-15
8.66966e-16
6.14157e-16
4.12293e-16
2.59586e-16
1.51105e-16
7.94722e-17
3.65159e-17
1.38888e-17
3.98155e-18
7.24774e-19
2.88765e-20
6.99192e-20
2.19216e-20
5.0258e-20
1.45568e-19
3.69491e-19
8.37139e-19
1.74068e-18
3.39137e-18
6.2601e-18
1.10588e-17
1.88463e-17
3.09841e-17
4.94461e-17
7.67611e-17
1.16121e-16
1.71412e-16
2.47189e-16
3.48569e-16
4.8103e-16
6.50859e-16
8.62963e-16
1.12138e-15
1.43065e-15
1.79048e-15
2.20084e-15
2.65547e-15
3.1481e-15
3.66931e-15
4.19977e-15
4.72404e-15
5.22394e-15
5.67603e-15
6.06052e-15
6.35978e-15
6.5575e-15
6.64204e-15
6.60746e-15
6.45356e-15
6.18504e-15
5.81569e-15
5.36236e-15
4.84407e-15
4.28599e-15
3.70913e-15
3.13092e-15
2.57172e-15
2.04837e-15
1.57667e-15
1.16813e-15
8.26768e-16
5.54599e-16
3.48977e-16
2.03069e-16
1.06806e-16
4.91046e-17
1.87055e-17
5.37901e-18
9.8486e-19
3.95152e-20
9.3949e-20
3.36676e-20
7.44155e-20
2.11712e-19
5.32072e-19
1.19865e-18
2.48362e-18
4.82635e-18
8.88962e-18
1.56734e-17
2.66621e-17
4.37592e-17
6.97203e-17
1.08067e-16
1.63233e-16
2.40604e-16
3.46472e-16
4.87882e-16
6.72349e-16
9.08469e-16
1.20287e-15
1.56094e-15
1.98874e-15
2.48556e-15
3.05107e-15
3.67636e-15
4.35247e-15
5.06617e-15
5.79072e-15
6.50478e-15
7.18339e-15
7.79454e-15
8.31139e-15
8.71015e-15
8.96903e-15
9.07269e-15
9.01369e-15
8.79236e-15
8.41575e-15
7.90325e-15
7.27816e-15
6.56668e-15
5.80319e-15
5.01622e-15
4.22933e-15
3.46998e-15
2.76076e-15
2.12273e-15
1.57111e-15
1.11095e-15
7.44615e-16
4.68232e-16
2.72346e-16
1.43229e-16
6.58795e-17
2.51282e-17
7.24593e-18
1.33371e-18
5.38583e-20
1.16597e-19
4.93509e-20
1.09184e-19
3.06169e-19
7.62782e-19
1.70984e-18
3.53199e-18
6.84848e-18
1.2591e-17
2.21627e-17
3.76424e-17
6.16891e-17
9.81464e-17
1.51914e-16
2.29148e-16
3.37303e-16
4.85066e-16
6.82129e-16
9.38785e-16
1.26678e-15
1.67505e-15
2.17077e-15
2.76197e-15
3.44729e-15
4.22586e-15
5.08498e-15
6.01194e-15
6.98812e-15
7.97659e-15
8.9479e-15
9.86778e-15
1.06926e-14
1.13861e-14
1.19161e-14
1.22537e-14
1.23786e-14
1.22818e-14
1.19643e-14
1.14369e-14
1.07266e-14
9.86568e-15
8.89012e-15
7.84688e-15
6.77458e-15
5.70506e-15
4.67527e-15
3.71545e-15
2.85363e-15
2.10987e-15
1.49045e-15
9.98108e-16
6.27182e-16
3.64614e-16
1.91718e-16
8.82103e-17
3.36833e-17
9.73707e-18
1.80096e-18
7.31611e-20
1.37721e-19
7.01535e-20
1.59102e-19
4.40909e-19
1.08992e-18
2.43222e-18
5.01058e-18
9.69674e-18
1.77994e-17
3.12858e-17
5.30654e-17
8.68503e-17
1.37999e-16
2.13325e-16
3.21368e-16
4.72445e-16
6.78537e-16
9.52968e-16
1.30983e-15
1.76513e-15
2.33093e-15
3.01673e-15
3.83315e-15
4.77778e-15
5.84883e-15
7.02822e-15
8.29791e-15
9.6318e-15
1.09789e-14
1.22986e-14
1.35439e-14
1.46555e-14
1.55842e-14
1.62869e-14
1.67251e-14
1.68724e-14
1.67176e-14
1.62635e-14
1.55257e-14
1.45423e-14
1.33578e-14
1.20215e-14
1.05976e-14
9.13808e-15
7.68604e-15
6.29113e-15
4.99371e-15
3.83105e-15
2.82949e-15
1.99678e-15
1.33596e-15
8.38836e-16
4.87386e-16
2.56207e-16
1.17907e-16
4.50667e-17
1.30573e-17
2.42595e-18
9.90967e-20
1.57738e-19
9.80107e-20
2.30746e-19
6.3304e-19
1.55367e-18
3.45278e-18
7.09541e-18
1.37078e-17
2.51272e-17
4.41101e-17
7.47269e-17
1.22158e-16
1.93869e-16
2.99334e-16
4.50395e-16
6.61317e-16
9.48622e-16
1.33061e-15
1.82654e-15
2.45826e-15
3.24195e-15
4.19019e-15
5.31696e-15
6.61817e-15
8.09055e-15
9.70838e-15
1.14461e-14
1.32672e-14
1.51011e-14
1.68922e-14
1.85759e-14
2.00717e-14
2.13132e-14
2.22426e-14
2.28086e-14
2.29771e-14
2.27344e-14
2.20863e-14
2.10555e-14
1.96953e-14
1.80671e-14
1.62385e-14
1.42967e-14
1.23122e-14
1.03429e-14
8.45545e-15
6.70365e-15
5.13691e-15
3.78976e-15
2.67167e-15
1.78582e-15
1.12039e-15
6.50581e-16
3.41886e-16
1.57357e-16
6.01969e-17
1.74774e-17
3.26084e-18
1.33892e-19
1.77679e-19
1.36143e-19
3.33567e-19
9.07031e-19
2.21107e-18
4.89457e-18
1.0035e-17
1.93562e-17
3.54364e-17
6.21373e-17
1.05151e-16
1.71706e-16
2.72203e-16
4.19806e-16
6.30932e-16
9.25304e-16
1.32568e-15
1.85719e-15
2.54615e-15
3.4223e-15
4.50733e-15
5.81782e-15
7.37212e-15
9.16352e-15
1.11864e-14
1.34042e-14
1.57807e-14
1.82647e-14
2.07592e-14
2.31873e-14
2.54611e-14
2.7471e-14
2.91274e-14
3.03532e-14
3.10804e-14
3.12648e-14
3.08904e-14
2.99672e-14
2.85286e-14
2.66489e-14
2.44127e-14
2.19126e-14
1.9267e-14
1.65713e-14
1.39031e-14
1.13517e-14
8.98886e-15
6.87989e-15
5.06991e-15
3.57033e-15
2.38419e-15
1.49455e-15
8.67285e-16
4.55599e-16
2.09709e-16
8.02853e-17
2.33551e-17
4.37472e-18
1.80506e-19
1.99313e-19
1.89549e-19
4.81313e-19
1.2979e-18
3.14321e-18
6.93173e-18
1.418e-17
2.7311e-17
4.99415e-17
8.74805e-17
1.47888e-16
2.41247e-16
3.82044e-16
5.8857e-16
8.83577e-16
1.29432e-15
1.85214e-15
2.59152e-15
3.54837e-15
4.76313e-15
6.26486e-15
8.07531e-15
1.02184e-14
1.26835e-14
1.5461e-14
1.84993e-14
2.17471e-14
2.51328e-14
2.85226e-14
3.1811e-14
3.48777e-14
3.75743e-14
3.97803e-14
4.13923e-14
4.23208e-14
4.25091e-14
4.19385e-14
4.0626e-14
3.86204e-14
3.6025e-14
3.29562e-14
2.95408e-14
2.59396e-14
2.2281e-14
1.86692e-14
1.52238e-14
1.204e-14
9.20402e-15
6.77479e-15
4.76575e-15
3.17931e-15
1.99125e-15
1.15474e-15
6.06359e-16
2.79107e-16
1.06927e-16
3.1162e-17
5.85897e-18
2.42869e-19
2.25635e-19
2.65603e-19
6.94027e-19
1.85577e-18
4.46526e-18
9.81072e-18
2.0026e-17
3.85156e-17
7.03534e-17
1.23115e-16
2.0793e-16
3.38864e-16
5.36092e-16
8.25024e-16
1.23718e-15
1.81022e-15
2.58729e-15
3.61564e-15
4.94428e-15
6.62814e-15
8.706e-15
1.12063e-14
1.41601e-14
1.75506e-14
2.13625e-14
2.55223e-14
2.99579e-14
3.45688e-14
3.91712e-14
4.362e-14
4.77512e-14
5.13637e-14
5.42954e-14
5.64089e-14
5.75862e-14
5.77547e-14
5.6894e-14
5.50316e-14
5.2238e-14
4.86573e-14
4.44494e-14
3.97874e-14
3.48896e-14
2.99285e-14
2.50439e-14
2.03956e-14
1.61096e-14
1.23e-14
9.04303e-15
6.3543e-15
4.23475e-15
2.64994e-15
1.53564e-15
8.06022e-16
3.71001e-16
1.42222e-16
4.15196e-17
7.83431e-18
3.26192e-19
2.61667e-19
3.75343e-19
1.00075e-18
2.65227e-18
6.34077e-18
1.38803e-17
2.82727e-17
5.43014e-17
9.9084e-17
1.73231e-16
2.92304e-16
4.75925e-16
7.52189e-16
1.15639e-15
1.7322e-15
2.53162e-15
3.61402e-15
5.04415e-15
6.88876e-15
9.22242e-15
1.20968e-14
1.55488e-14
1.96186e-14
2.42799e-14
2.95087e-14
3.52009e-14
4.12545e-14
4.75293e-14
5.37724e-14
5.97848e-14
6.53429e-14
7.01747e-14
7.4063e-14
7.68247e-14
7.83051e-14
7.84122e-14
7.71251e-14
7.44868e-14
7.05994e-14
6.56633e-14
5.98979e-14
5.35392e-14
4.68834e-14
4.01619e-14
3.3562e-14
2.72965e-14
2.15326e-14
1.642e-14
1.20577e-14
8.46306e-15
5.63427e-15
3.52251e-15
2.03982e-15
1.07016e-15
4.92551e-16
1.88926e-16
5.52452e-17
1.046e-17
4.37371e-19
3.14423e-19
5.35162e-19
1.44343e-18
3.78961e-18
9.00179e-18
1.96341e-17
3.9909e-17
7.65475e-17
1.39535e-16
2.43734e-16
4.10907e-16
6.68424e-16
1.05541e-15
1.6209e-15
2.42537e-15
3.5406e-15
5.04828e-15
7.03704e-15
9.59778e-15
1.28315e-14
1.68069e-14
2.15717e-14
2.71773e-14
3.35833e-14
4.07523e-14
4.85369e-14
5.67933e-14
6.5326e-14
7.37871e-14
8.1904e-14
8.93723e-14
9.58245e-14
1.0097e-13
1.04565e-13
1.06409e-13
1.06385e-13
1.04474e-13
1.00743e-13
9.53382e-14
8.85389e-14
8.06454e-14
7.19795e-14
6.29419e-14
5.38431e-14
4.49332e-14
3.64959e-14
2.87516e-14
2.18972e-14
1.60602e-14
1.12595e-14
7.48809e-15
4.67718e-15
2.70646e-15
1.41921e-15
6.53148e-16
2.5066e-16
7.3413e-17
1.39459e-17
5.8553e-19
3.93833e-19
7.69122e-19
2.08232e-18
5.41325e-18
1.27773e-17
2.77702e-17
5.6332e-17
1.07907e-16
1.96507e-16
3.42952e-16
5.77681e-16
9.38877e-16
1.48104e-15
2.27225e-15
3.39627e-15
4.9522e-15
7.05232e-15
9.81793e-15
1.33726e-14
1.78532e-14
2.33504e-14
2.99256e-14
3.76444e-14
4.64449e-14
5.62695e-14
6.69097e-14
7.81633e-14
8.97573e-14
1.01214e-13
1.1216e-13
1.22182e-13
1.30783e-13
1.37576e-13
1.42238e-13
1.44508e-13
1.44238e-13
1.41419e-13
1.3615e-13
1.28644e-13
1.19285e-13
1.08486e-13
9.66851e-14
8.44233e-14
7.21168e-14
6.0099e-14
4.87472e-14
3.8352e-14
2.91712e-14
2.1369e-14
1.49638e-14
9.94104e-15
6.20349e-15
3.58693e-15
1.87997e-15
8.65097e-16
3.32167e-16
9.74329e-17
1.85683e-17
7.82727e-19
5.14924e-19
1.11213e-18
3.00345e-18
7.72967e-18
1.81331e-17
3.92765e-17
7.95172e-17
1.52129e-16
2.76777e-16
4.82636e-16
8.12286e-16
1.31901e-15
2.0787e-15
3.18593e-15
4.7567e-15
6.92772e-15
9.85334e-15
1.36994e-14
1.86337e-14
2.48414e-14
3.24421e-14
4.15139e-14
5.21393e-14
6.4225e-14
7.76829e-14
9.22186e-14
1.07547e-13
1.23289e-13
1.38787e-13
1.53532e-13
1.66962e-13
1.78408e-13
1.87353e-13
1.93372e-13
1.96124e-13
1.95431e-13
1.91293e-13
1.83866e-13
1.73449e-13
1.60577e-13
1.45815e-13
1.29756e-13
1.13133e-13
9.65016e-14
8.03062e-14
6.50469e-14
5.11064e-14
3.88215e-14
2.84027e-14
1.98658e-14
1.31832e-14
8.21884e-15
4.74855e-15
2.4875e-15
1.1445e-15
4.39656e-16
1.29153e-16
2.469e-17
1.04486e-18
6.9968e-19
1.61398e-18
4.32865e-18
1.1031e-17
2.57283e-17
5.55506e-17
1.12259e-16
2.14515e-16
3.89925e-16
6.79384e-16
1.14247e-15
1.85354e-15
2.91832e-15
4.46817e-15
6.66368e-15
9.69349e-15
1.37696e-14
1.91186e-14
2.59683e-14
3.45684e-14
4.50764e-14
5.75904e-14
7.22134e-14
8.88049e-14
1.07232e-13
1.27078e-13
1.47945e-13
1.693e-13
1.90246e-13
2.10086e-13
2.28057e-13
2.4326e-13
2.55007e-13
2.62738e-13
2.66014e-13
2.64618e-13
2.58577e-13
2.4812e-13
2.33677e-13
2.15988e-13
1.95821e-13
1.73986e-13
1.51468e-13
1.29011e-13
1.07204e-13
8.67114e-14
6.8034e-14
5.16113e-14
3.77121e-14
2.63455e-14
1.7464e-14
1.0877e-14
6.27939e-15
3.28765e-15
1.51242e-15
5.81247e-16
1.70991e-16
3.27876e-17
1.39286e-18
9.79005e-19
2.34411e-18
6.22897e-18
1.57293e-17
3.64954e-17
7.85709e-17
1.58513e-16
3.02567e-16
5.49501e-16
9.56656e-16
1.60742e-15
2.60558e-15
4.09845e-15
6.26849e-15
9.33805e-15
1.35673e-14
1.92473e-14
2.66874e-14
3.61965e-14
4.81112e-14
6.26373e-14
7.98969e-14
1.00017e-13
1.22786e-13
1.48006e-13
1.7509e-13
2.03475e-13
2.32423e-13
2.60705e-13
2.87369e-13
3.11379e-13
3.31532e-13
3.46913e-13
3.56788e-13
3.60593e-13
3.58068e-13
3.49284e-13
3.34584e-13
3.14577e-13
2.90284e-13
2.62756e-13
2.33089e-13
2.02611e-13
1.72312e-13
1.42975e-13
1.15478e-13
9.04774e-14
6.85445e-14
5.00206e-14
3.49017e-14
2.311e-14
1.43793e-14
8.29456e-15
4.34031e-15
1.99633e-15
7.67545e-16
2.26111e-16
4.34855e-17
1.8543e-18
1.39294e-18
3.39626e-18
8.94261e-18
2.24061e-17
5.17546e-17
1.11142e-16
2.23887e-16
4.26915e-16
7.74693e-16
1.34765e-15
2.26254e-15
3.66429e-15
5.75818e-15
8.79766e-15
1.30906e-14
1.89956e-14
2.69124e-14
3.72628e-14
5.0465e-14
6.6972e-14
8.70516e-14
1.10853e-13
1.3853e-13
1.69768e-13
2.0427e-13
2.4121e-13
2.79797e-13
3.19007e-13
3.57155e-13
3.92945e-13
4.24976e-13
4.51634e-13
4.71707e-13
4.84237e-13
4.88505e-13
4.84207e-13
4.71487e-13
4.50851e-13
4.2316e-13
3.89824e-13
3.52275e-13
3.11996e-13
2.70776e-13
2.29931e-13
1.90499e-13
1.53637e-13
1.20204e-13
9.09398e-14
6.62771e-14
4.61876e-14
3.05482e-14
1.89884e-14
1.09443e-14
5.72361e-15
2.63208e-15
1.01238e-15
2.98644e-16
5.76016e-17
2.46538e-18
1.9849e-18
4.8917e-18
1.28e-17
3.18828e-17
7.33802e-17
1.57249e-16
3.16344e-16
6.02644e-16
1.09271e-15
1.89941e-15
3.18628e-15
5.15574e-15
8.09391e-15
1.23529e-14
1.83589e-14
2.66065e-14
3.76437e-14
5.20457e-14
7.03778e-14
9.32483e-14
1.21004e-13
1.53824e-13
1.91887e-13
2.3473e-13
2.81912e-13
3.32266e-13
3.84687e-13
4.37752e-13
4.89154e-13
5.37132e-13
5.79792e-13
6.14974e-13
6.41079e-13
6.56859e-13
6.61403e-13
6.54367e-13
6.36012e-13
6.07081e-13
5.68788e-13
5.23076e-13
4.71896e-13
4.17252e-13
3.61548e-13
3.06532e-13
2.53576e-13
2.04204e-13
1.59536e-13
1.20528e-13
8.77251e-14
6.10579e-14
4.0337e-14
2.50475e-14
1.44246e-14
7.53932e-15
3.46635e-15
1.33377e-15
3.93974e-16
7.62051e-17
3.27365e-18
2.78436e-18
6.9803e-18
1.82634e-17
4.53295e-17
1.04044e-16
2.22563e-16
4.4721e-16
8.51192e-16
1.54218e-15
2.67866e-15
4.48978e-15
7.25838e-15
1.13834e-14
1.73541e-14
2.57604e-14
3.7284e-14
5.26762e-14
7.27206e-14
9.81798e-14
1.2987e-13
1.68235e-13
2.13486e-13
2.65823e-13
3.24566e-13
3.89058e-13
4.57661e-13
5.28828e-13
6.00579e-13
6.69768e-13
7.33997e-13
7.90713e-13
8.37032e-13
8.70848e-13
8.90543e-13
8.94972e-13
8.83766e-13
8.57369e-13
8.1686e-13
7.63951e-13
7.01317e-13
6.31608e-13
5.57532e-13
4.82314e-13
4.08273e-13
3.37215e-13
2.71147e-13
2.11524e-13
1.5958e-13
1.15992e-13
8.06299e-14
5.32048e-14
3.30038e-14
1.89904e-14
9.91987e-15
4.55985e-15
1.75516e-15
5.1912e-16
1.00692e-16
4.3414e-18
3.78477e-18
9.84659e-18
2.59986e-17
6.44328e-17
1.47577e-16
3.15192e-16
6.32631e-16
1.20308e-15
2.17805e-15
3.7802e-15
6.33079e-15
1.02252e-14
1.60198e-14
2.43945e-14
3.61661e-14
5.22738e-14
7.3747e-14
1.01652e-13
1.37016e-13
1.80932e-13
2.33964e-13
2.96349e-13
3.68301e-13
4.48818e-13
5.36936e-13
6.30349e-13
7.26894e-13
8.23828e-13
9.16852e-13
1.00272e-12
1.07798e-12
1.1388e-12
1.18241e-12
1.20673e-12
1.21033e-12
1.19284e-12
1.15499e-12
1.09834e-12
1.0253e-12
9.39542e-13
8.44668e-13
7.44325e-13
6.42838e-13
5.43273e-13
4.48011e-13
3.59681e-13
2.80172e-13
2.11066e-13
1.53207e-13
1.06362e-13
7.01016e-14
4.34397e-14
2.49738e-14
1.30374e-14
5.99148e-15
2.307e-15
6.83208e-16
1.32883e-16
5.75018e-18
4.88474e-18
1.38288e-17
3.70123e-17
9.16587e-17
2.09497e-16
4.46742e-16
8.95673e-16
1.70182e-15
3.07856e-15
5.33888e-15
8.93348e-15
1.44153e-14
2.25605e-14
3.43142e-14
5.0807e-14
7.33329e-14
1.03302e-13
1.42162e-13
1.91297e-13
2.52163e-13
3.25472e-13
4.11473e-13
5.10373e-13
6.20704e-13
7.41052e-13
8.68176e-13
9.99054e-13
1.12989e-12
1.25481e-12
1.36943e-12
1.4691e-12
1.54873e-12
1.6047e-12
1.63433e-12
1.63587e-12
1.609e-12
1.55488e-12
1.47576e-12
1.37501e-12
1.25768e-12
1.12865e-12
9.92835e-13
8.56012e-13
7.22239e-13
5.94636e-13
4.76652e-13
3.70722e-13
2.78875e-13
2.02147e-13
1.40155e-13
9.2264e-14
5.71125e-14
3.28057e-14
1.71154e-14
7.86361e-15
3.02884e-15
8.98096e-16
1.7515e-16
7.60664e-18
6.38806e-18
1.96261e-17
5.29497e-17
1.30619e-16
2.9777e-16
6.33883e-16
1.26936e-15
2.40963e-15
4.35543e-15
7.54708e-15
1.26173e-14
2.03397e-14
3.17977e-14
4.83055e-14
7.14281e-14
1.02948e-13
1.44794e-13
1.98934e-13
2.67224e-13
3.51603e-13
4.52956e-13
5.71516e-13
7.07446e-13
8.58597e-13
1.02291e-12
1.19582e-12
1.37312e-12
1.54955e-12
1.71713e-12
1.8699e-12
2.00164e-12
2.10558e-12
2.17702e-12
2.21253e-12
2.21e-12
2.16924e-12
2.09206e-12
1.98167e-12
1.84282e-12
1.6824e-12
1.50703e-12
1.32332e-12
1.13898e-12
9.59379e-13
7.88589e-13
6.31118e-13
4.90106e-13
3.68138e-13
2.66477e-13
1.84514e-13
1.21319e-13
7.50172e-14
4.30522e-14
2.24471e-14
1.03106e-14
3.9726e-15
1.17938e-15
2.30618e-16
1.00494e-17
8.64921e-18
2.80688e-17
7.58673e-17
1.86477e-16
4.23846e-16
9.00524e-16
1.80097e-15
3.41545e-15
6.16821e-15
1.06792e-14
1.78372e-14
2.87255e-14
4.4857e-14
6.80594e-14
1.005e-13
1.44632e-13
2.03095e-13
2.78557e-13
3.73505e-13
4.9051e-13
6.30657e-13
7.9411e-13
9.80919e-13
1.18795e-12
1.4122e-12
1.64728e-12
1.88731e-12
2.12501e-12
2.34954e-12
2.55284e-12
2.72658e-12
2.8618e-12
2.95241e-12
2.99406e-12
2.98424e-12
2.92304e-12
2.81323e-12
2.6594e-12
2.46817e-12
2.24899e-12
2.0108e-12
1.76246e-12
1.5143e-12
1.27334e-12
1.04492e-12
8.34912e-13
6.47354e-13
4.85527e-13
3.50952e-13
2.42682e-13
1.59369e-13
9.84388e-14
5.64432e-14
2.94102e-14
1.35053e-14
5.20504e-15
1.54713e-15
3.03319e-16
1.32647e-17
1.18913e-17
4.01171e-17
1.08764e-16
2.66611e-16
6.04173e-16
1.28101e-15
2.55835e-15
4.84673e-15
8.74518e-15
1.51274e-14
2.52429e-14
4.06091e-14
6.334e-14
9.59781e-14
1.41523e-13
2.03354e-13
2.85078e-13
3.90306e-13
5.22362e-13
6.84647e-13
8.78458e-13
1.1038e-12
1.36049e-12
1.64398e-12
1.9499e-12
2.26929e-12
2.59397e-12
2.91389e-12
3.2143e-12
3.48435e-12
3.71291e-12
3.88814e-12
4.0022e-12
4.04962e-12
4.02746e-12
3.93636e-12
3.78047e-12
3.56636e-12
3.30321e-12
3.00397e-12
2.68069e-12
2.34527e-12
2.01143e-12
1.68842e-12
1.3832e-12
1.1034e-12
8.54169e-13
6.39669e-13
4.61704e-13
3.18835e-13
2.09118e-13
1.29026e-13
7.39141e-14
3.84882e-14
1.76689e-14
6.8116e-15
2.02702e-15
3.98423e-16
1.74854e-17
1.65096e-17
5.72688e-17
1.55931e-16
3.81592e-16
8.62387e-16
1.82472e-15
3.63896e-15
6.88642e-15
1.24138e-14
2.14534e-14
3.57635e-14
5.74713e-14
8.95318e-14
1.35483e-13
1.99478e-13
2.86165e-13
4.00472e-13
5.47282e-13
7.31018e-13
9.56164e-13
1.22422e-12
1.53489e-12
1.88755e-12
2.27561e-12
2.69275e-12