/*--------------------------------*- C++ -*----------------------------------*\
| =========                 |                                                 |
| \\      /  F ield         | OpenFOAM: The Open Source CFD Toolbox           |
|  \\    /   O peration     | Version:  2.4.0                                 |
|   \\  /    A nd           | Web:      www.OpenFOAM.org                      |
|    \\/     M anipulation  |                                                 |
\*---------------------------------------------------------------------------*/
FoamFile
{
    version     2.0;
    format      ascii;
    class       volScalarField;
    location    "1";
    object      k;
}
// * * * * * * * * * * * * * * * * * * * * * * * * * * * * * * * * * * * * * //

dimensions      [0 2 0 0 0 0 0];

internalField   nonuniform List<scalar> 
100
(
7e-12
7e-12
7e-12
7e-12
7e-12
7e-12
7e-12
7e-12
7e-12
7e-12
7e-12
7e-12
7e-12
7e-12
7e-12
7e-12
7e-12
7e-12
7e-12
7e-12
7e-12
7e-12
7e-12
7e-12
7e-12
2e-11
2e-11
2e-11
2e-11
2e-11
2e-11
2e-11
2e-11
2e-11
2e-11
2e-11
2e-11
2e-11
2e-11
2e-11
2e-11
2e-11
2e-11
2e-11
2e-11
2e-11
2e-11
2e-11
2e-11
2e-11
4.1e-11
4.1e-11
4.1e-11
4.1e-11
4.1e-11
4.1e-11
4.1e-11
4.1e-11
4.1e-11
4.1e-11
4.1e-11
4.1e-11
4.1e-11
4.1e-11
4.1e-11
4.1e-11
4.1e-11
4.1e-11
4.1e-11
4.1e-11
4.1e-11
4.1e-11
4.1e-11
4.1e-11
4.1e-11
4e-12
4e-12
4e-12
4e-12
4e-12
4e-12
4e-12
4e-12
4e-12
4e-12
4e-12
4e-12
4e-12
4e-12
4e-12
4e-12
4e-12
4e-12
4e-12
4e-12
4e-12
4e-12
4e-12
4e-12
4e-12
)
;

boundaryField
{
    inlet
    {
        type            zeroGradient;
    }
    outlet
    {
        type            zeroGradient;
    }
    frontAndBack
    {
        type            empty;
    }
}


// ************************************************************************* //
