/*--------------------------------*- C++ -*----------------------------------*\
| =========                 |                                                 |
| \\      /  F ield         | OpenFOAM: The Open Source CFD Toolbox           |
|  \\    /   O peration     | Version:  2.4.0                                 |
|   \\  /    A nd           | Web:      www.OpenFOAM.org                      |
|    \\/     M anipulation  |                                                 |
\*---------------------------------------------------------------------------*/
FoamFile
{
    version     2.0;
    format      ascii;
    class       volScalarField;
    location    "1";
    object      p;
}
// * * * * * * * * * * * * * * * * * * * * * * * * * * * * * * * * * * * * * //

dimensions      [1 -1 -2 0 0 0 0];

internalField   nonuniform List<scalar> 
100
(
99.3885
98.1655
96.9426
95.7196
94.4966
93.2737
92.0507
90.8277
89.6048
88.3818
87.1588
85.9359
84.7129
83.4899
82.267
81.044
79.821
78.5981
77.3751
76.1521
74.9292
73.7062
72.4832
71.2603
70.0373
69.2118
68.7837
68.3557
67.9277
67.4996
67.0716
66.6435
66.2155
65.7875
65.3594
64.9314
64.5034
64.0753
63.6473
63.2192
62.7912
62.3632
61.9351
61.5071
61.079
60.651
60.223
59.7949
59.3669
58.9389
58.6204
58.4116
58.2028
57.994
57.7852
57.5764
57.3676
57.1588
56.95
56.7412
56.5324
56.3236
56.1148
55.906
55.6972
55.4884
55.2796
55.0708
54.862
54.6532
54.4444
54.2356
54.0268
53.818
53.6092
52.4348
50.2946
48.1544
46.0142
43.874
41.7338
39.5936
37.4534
35.3132
33.173
31.0328
28.8926
26.7524
24.6122
22.472
20.3318
18.1916
16.0515
13.9113
11.7711
9.63087
7.49068
5.35048
3.21029
1.0701
)
;

boundaryField
{
    inlet
    {
        type            fixedValue;
        value           uniform 100;
    }
    outlet
    {
        type            fixedValue;
        value           uniform 0;
    }
    frontAndBack
    {
        type            empty;
    }
}


// ************************************************************************* //
