/*--------------------------------*- C++ -*----------------------------------*\
| =========                 |                                                 |
| \\      /  F ield         | OpenFOAM: The Open Source CFD Toolbox           |
|  \\    /   O peration     | Version:  2.4.0                                 |
|   \\  /    A nd           | Web:      www.OpenFOAM.org                      |
|    \\/     M anipulation  |                                                 |
\*---------------------------------------------------------------------------*/
FoamFile
{
    version     2.0;
    format      ascii;
    class       volVectorField;
    location    "1";
    object      U;
}
// * * * * * * * * * * * * * * * * * * * * * * * * * * * * * * * * * * * * * //

dimensions      [0 1 -1 0 0 0 0];

internalField   nonuniform List<vector> 
100
(
(7.73541e-06 0 0)
(7.73541e-06 0 0)
(7.73541e-06 0 0)
(7.73541e-06 0 0)
(7.73541e-06 0 0)
(7.73541e-06 0 0)
(7.73541e-06 0 0)
(7.73541e-06 0 0)
(7.73541e-06 0 0)
(7.73541e-06 0 0)
(7.73541e-06 0 0)
(7.73541e-06 0 0)
(7.73541e-06 0 0)
(7.73541e-06 0 0)
(7.73541e-06 0 0)
(7.73541e-06 0 0)
(7.73541e-06 0 0)
(7.73541e-06 0 0)
(7.73541e-06 0 0)
(7.73541e-06 0 0)
(7.73541e-06 0 0)
(7.73541e-06 0 0)
(7.73541e-06 0 0)
(7.73541e-06 0 0)
(7.73541e-06 0 0)
(7.73541e-06 0 0)
(7.73541e-06 0 0)
(7.73541e-06 0 0)
(7.73541e-06 0 0)
(7.73541e-06 0 0)
(7.73541e-06 0 0)
(7.73541e-06 0 0)
(7.73541e-06 0 0)
(7.73541e-06 0 0)
(7.73541e-06 0 0)
(7.73541e-06 0 0)
(7.73541e-06 0 0)
(7.73541e-06 0 0)
(7.73541e-06 0 0)
(7.73541e-06 0 0)
(7.73541e-06 0 0)
(7.73541e-06 0 0)
(7.73541e-06 0 0)
(7.73541e-06 0 0)
(7.73541e-06 0 0)
(7.73541e-06 0 0)
(7.73541e-06 0 0)
(7.73541e-06 0 0)
(7.73541e-06 0 0)
(7.73541e-06 0 0)
(7.73541e-06 0 0)
(7.73541e-06 0 0)
(7.73541e-06 0 0)
(7.73541e-06 0 0)
(7.73541e-06 0 0)
(7.73541e-06 0 0)
(7.73541e-06 0 0)
(7.73541e-06 0 0)
(7.73541e-06 0 0)
(7.73541e-06 0 0)
(7.73541e-06 0 0)
(7.73541e-06 0 0)
(7.73541e-06 0 0)
(7.73541e-06 0 0)
(7.73541e-06 0 0)
(7.73541e-06 0 0)
(7.73541e-06 0 0)
(7.73541e-06 0 0)
(7.73541e-06 0 0)
(7.73541e-06 0 0)
(7.73541e-06 0 0)
(7.73541e-06 0 0)
(7.73541e-06 0 0)
(7.73541e-06 0 0)
(7.73541e-06 0 0)
(7.73541e-06 0 0)
(7.73541e-06 0 0)
(7.73541e-06 0 0)
(7.73541e-06 0 0)
(7.73541e-06 0 0)
(7.73541e-06 0 0)
(7.73541e-06 0 0)
(7.73541e-06 0 0)
(7.73541e-06 0 0)
(7.73541e-06 0 0)
(7.73541e-06 0 0)
(7.73541e-06 0 0)
(7.73541e-06 0 0)
(7.73541e-06 0 0)
(7.73541e-06 0 0)
(7.73541e-06 0 0)
(7.73541e-06 0 0)
(7.73541e-06 0 0)
(7.73541e-06 0 0)
(7.73541e-06 0 0)
(7.73541e-06 0 0)
(7.73541e-06 0 0)
(7.73541e-06 0 0)
(7.73541e-06 0 0)
(7.73541e-06 0 0)
)
;

boundaryField
{
    inlet
    {
        type            calculated;
        value           uniform (7.73541e-06 0 0);
    }
    outlet
    {
        type            calculated;
        value           uniform (7.73541e-06 0 0);
    }
    frontAndBack
    {
        type            empty;
    }
}


// ************************************************************************* //
