/*--------------------------------*- C++ -*----------------------------------*\
| =========                 |                                                 |
| \\      /  F ield         | OpenFOAM: The Open Source CFD Toolbox           |
|  \\    /   O peration     | Version:  2.3.1                                 |
|   \\  /    A nd           | Web:      www.OpenFOAM.org                      |
|    \\/     M anipulation  |                                                 |
\*---------------------------------------------------------------------------*/
FoamFile
{
    version     2.0;
    format      ascii;
    class       volScalarField;
    location    "0";
    object      y;
}
// * * * * * * * * * * * * * * * * * * * * * * * * * * * * * * * * * * * * * //

dimensions      [0 1 0 0 0 0 0];

internalField   nonuniform List<scalar> 
14431
(
0.00199503
0.00598503
0.00999603
0.014028
0.018081
0.022176
0.026313
0.030492
0.034692
0.038934
0.043218
0.047523
0.05187
0.056259
0.06069
0.065163
0.069678
0.074235
0.078834
0.083496
0.0882
0.092946
0.097755
0.102606
0.10752
0.112476
0.117495
0.122598
0.127743
0.132951
0.138243
0.143598
0.149016
0.154518
0.160104
0.165774
0.171528
0.177387
0.183351
0.189399
0.195552
0.201831
0.208215
0.214746
0.221487
0.228459
0.235704
0.243243
0.251097
0.25935
0.268065
0.277305
0.287175
0.297843
0.309561
0.322707
0.337996
0.357085
0.393944
0.00199503
0.00598503
0.00999603
0.014028
0.018081
0.022176
0.026313
0.030492
0.034692
0.038934
0.043218
0.047523
0.05187
0.056259
0.06069
0.065163
0.069678
0.074235
0.078834
0.083496
0.0882
0.092946
0.097755
0.102606
0.10752
0.112476
0.117495
0.122598
0.127743
0.132951
0.138243
0.143598
0.149016
0.154518
0.160104
0.165774
0.171528
0.177387
0.183351
0.189399
0.195552
0.201831
0.208215
0.214746
0.221487
0.228459
0.235704
0.243243
0.251097
0.25935
0.268065
0.277305
0.287175
0.297843
0.309561
0.322707
0.337996
0.357085
0.393944
0.00199503
0.00598503
0.00999603
0.014028
0.018081
0.022176
0.026313
0.030492
0.034692
0.038934
0.043218
0.047523
0.05187
0.056259
0.06069
0.065163
0.069678
0.074235
0.078834
0.083496
0.0882
0.092946
0.097755
0.102606
0.10752
0.112476
0.117495
0.122598
0.127743
0.132951
0.138243
0.143598
0.149016
0.154518
0.160104
0.165774
0.171528
0.177387
0.183351
0.189399
0.195552
0.201831
0.208215
0.214746
0.221487
0.228459
0.235704
0.243243
0.251097
0.25935
0.268065
0.277305
0.287175
0.297843
0.309561
0.322707
0.337996
0.357085
0.393944
0.00199503
0.00598503
0.00999603
0.014028
0.018081
0.022176
0.026313
0.030492
0.034692
0.038934
0.043218
0.047523
0.05187
0.056259
0.06069
0.065163
0.069678
0.074235
0.078834
0.083496
0.0882
0.092946
0.097755
0.102606
0.10752
0.112476
0.117495
0.122598
0.127743
0.132951
0.138243
0.143598
0.149016
0.154518
0.160104
0.165774
0.171528
0.177387
0.183351
0.189399
0.195552
0.201831
0.208215
0.214746
0.221487
0.228459
0.235704
0.243243
0.251097
0.25935
0.268065
0.277305
0.287175
0.297843
0.309561
0.322707
0.337996
0.357085
0.393944
0.00199503
0.00598503
0.00999603
0.014028
0.018081
0.022176
0.026313
0.030492
0.034692
0.038934
0.043218
0.047523
0.05187
0.056259
0.06069
0.065163
0.069678
0.074235
0.0788341
0.0834961
0.0882
0.092946
0.097755
0.102606
0.10752
0.112476
0.117495
0.122598
0.127743
0.132951
0.138243
0.143598
0.149016
0.154518
0.160104
0.165774
0.171528
0.177387
0.183351
0.189399
0.195552
0.201831
0.208215
0.214746
0.221487
0.228459
0.235704
0.243243
0.251097
0.25935
0.268065
0.277305
0.287175
0.297843
0.309561
0.322707
0.337996
0.357085
0.393944
0.00199503
0.00598503
0.00999603
0.014028
0.018081
0.022176
0.026313
0.030492
0.034692
0.038934
0.043218
0.047523
0.05187
0.056259
0.06069
0.065163
0.069678
0.074235
0.0788341
0.0834961
0.0882001
0.0929461
0.0977551
0.102606
0.10752
0.112476
0.117495
0.122598
0.127743
0.132951
0.138243
0.143598
0.149016
0.154518
0.160104
0.165774
0.171528
0.177387
0.183351
0.189399
0.195552
0.201831
0.208215
0.214746
0.221487
0.228459
0.235704
0.243243
0.251097
0.25935
0.268065
0.277305
0.287175
0.297843
0.309561
0.322707
0.337996
0.357085
0.393944
0.00199503
0.00598503
0.00999603
0.014028
0.018081
0.022176
0.026313
0.030492
0.034692
0.038934
0.043218
0.047523
0.05187
0.056259
0.06069
0.065163
0.0696781
0.0742351
0.0788341
0.0834961
0.0882001
0.0929461
0.0977551
0.102606
0.10752
0.112476
0.117495
0.122598
0.127743
0.132951
0.138243
0.143598
0.149016
0.154518
0.160104
0.165774
0.171528
0.177387
0.183351
0.189399
0.195552
0.201831
0.208215
0.214746
0.221487
0.228459
0.235704
0.243243
0.251097
0.25935
0.268065
0.277305
0.287175
0.297843
0.309561
0.322707
0.337996
0.357085
0.393944
0.00199503
0.00598503
0.00999603
0.014028
0.018081
0.022176
0.026313
0.030492
0.034692
0.038934
0.043218
0.047523
0.05187
0.056259
0.06069
0.0651631
0.0696781
0.0742351
0.0788341
0.0834961
0.0882001
0.0929461
0.0977551
0.102606
0.10752
0.112476
0.117495
0.122598
0.127743
0.132951
0.138243
0.143598
0.149016
0.154518
0.160104
0.165774
0.171528
0.177387
0.183351
0.189399
0.195552
0.201831
0.208215
0.214746
0.221487
0.228459
0.235704
0.243243
0.251097
0.25935
0.268065
0.277305
0.287175
0.297843
0.309561
0.322707
0.337996
0.357085
0.393944
0.00199503
0.00598503
0.00999603
0.014028
0.018081
0.022176
0.026313
0.030492
0.034692
0.038934
0.043218
0.047523
0.05187
0.0562591
0.0606901
0.0651631
0.0696781
0.0742351
0.0788341
0.0834961
0.0882001
0.0929461
0.0977551
0.102606
0.10752
0.112476
0.117495
0.122598
0.127743
0.132951
0.138243
0.143598
0.149016
0.154518
0.160104
0.165774
0.171528
0.177387
0.183351
0.189399
0.195552
0.201831
0.208215
0.214746
0.221487
0.228459
0.235704
0.243243
0.251097
0.25935
0.268065
0.277305
0.287175
0.297843
0.309561
0.322707
0.337996
0.357085
0.393944
0.00199503
0.00598503
0.00999603
0.014028
0.018081
0.022176
0.026313
0.030492
0.034692
0.038934
0.043218
0.047523
0.0518701
0.0562591
0.0606901
0.0651631
0.0696781
0.0742351
0.0788341
0.0834961
0.0882001
0.0929461
0.0977551
0.102606
0.10752
0.112476
0.117495
0.122598
0.127743
0.132951
0.138243
0.143598
0.149016
0.154518
0.160104
0.165774
0.171528
0.177387
0.183351
0.189399
0.195552
0.201831
0.208215
0.214746
0.221487
0.228459
0.235704
0.243243
0.251097
0.25935
0.268065
0.277305
0.287175
0.297843
0.309561
0.322707
0.337996
0.357085
0.393944
0.00142857
0.00142857
0.00142857
0.00142857
0.00142857
0.00142857
0.00142857
0.00142857
0.00142857
0.00142857
0.00142857
0.00142857
0.00142857
0.00142857
0.00142857
0.00142857
0.00142857
0.00142857
0.00142857
0.00142857
0.0015
0.00428572
0.00428572
0.00428572
0.00428572
0.00428572
0.00428572
0.00428572
0.00428572
0.00428572
0.00428572
0.00428572
0.00428572
0.00428572
0.00428572
0.00428572
0.00428572
0.00428572
0.00428572
0.00428572
0.0015
0.0045
0.00714286
0.00714286
0.00714286
0.00714286
0.00714286
0.00714286
0.00714286
0.00714286
0.00714286
0.00714286
0.00714286
0.00714286
0.00714286
0.00714286
0.00714286
0.00714286
0.00714286
0.00714286
0.0015
0.0045
0.0075
0.01
0.01
0.01
0.01
0.01
0.01
0.01
0.01
0.01
0.01
0.01
0.01
0.01
0.01
0.01
0.01
0.01
0.0015
0.0045
0.0075
0.0105
0.0128571
0.0128571
0.0128571
0.0128571
0.0128571
0.0128571
0.0128571
0.0128571
0.0128571
0.0128571
0.0128571
0.0128571
0.0128571
0.0128571
0.0128571
0.0128571
0.0015
0.0045
0.0075
0.0105
0.0135
0.0157143
0.0157143
0.0157143
0.0157143
0.0157143
0.0157143
0.0157143
0.0157143
0.0157143
0.0157143
0.0157143
0.0157143
0.0157143
0.0157143
0.0157143
0.0015
0.0045
0.0075
0.0105
0.0135
0.0165
0.0185714
0.0185714
0.0185714
0.0185714
0.0185714
0.0185714
0.0185714
0.0185714
0.0185714
0.0185714
0.0185714
0.0185714
0.0185714
0.0185714
0.0015
0.0045
0.0075
0.0105
0.0135
0.0165
0.0195
0.0214286
0.0214286
0.0214286
0.0214286
0.0214286
0.0214286
0.0214286
0.0214286
0.0214286
0.0214286
0.0214286
0.0214286
0.0214286
0.0015
0.0045
0.0075
0.0105
0.0135
0.0165
0.0195
0.0225
0.0242857
0.0242857
0.0242857
0.0242857
0.0242857
0.0242857
0.0242857
0.0242857
0.0242857
0.0242857
0.0242857
0.0242857
0.0015
0.0045
0.0075
0.0105
0.0135
0.0165
0.0195
0.0225
0.0255
0.0271429
0.0271429
0.0271429
0.0271429
0.0271429
0.0271429
0.0271429
0.0271429
0.0271429
0.0271429
0.0271429
0.0015
0.0045
0.0075
0.0105
0.0135
0.0165
0.0195
0.0225
0.0255
0.0285
0.03
0.03
0.03
0.03
0.03
0.03
0.03
0.03
0.03
0.03
0.0015
0.0045
0.0075
0.0105
0.0135
0.0165
0.0195
0.0225
0.0255
0.0271429
0.0271429
0.0271429
0.0271429
0.0271429
0.0271429
0.0271429
0.0271429
0.0271429
0.0271429
0.0271429
0.0015
0.0045
0.0075
0.0105
0.0135
0.0165
0.0195
0.0225
0.0242857
0.0242857
0.0242857
0.0242857
0.0242857
0.0242857
0.0242857
0.0242857
0.0242857
0.0242857
0.0242857
0.0242857
0.0015
0.0045
0.0075
0.0105
0.0135
0.0165
0.0195
0.0214286
0.0214286
0.0214286
0.0214286
0.0214286
0.0214286
0.0214286
0.0214286
0.0214286
0.0214286
0.0214286
0.0214286
0.0214286
0.0015
0.0045
0.0075
0.0105
0.0135
0.0165
0.0185714
0.0185714
0.0185714
0.0185714
0.0185714
0.0185714
0.0185714
0.0185714
0.0185714
0.0185714
0.0185714
0.0185714
0.0185714
0.0185714
0.0015
0.0045
0.0075
0.0105
0.0135
0.0157143
0.0157143
0.0157143
0.0157143
0.0157143
0.0157143
0.0157143
0.0157143
0.0157143
0.0157143
0.0157143
0.0157143
0.0157143
0.0157143
0.0157143
0.0015
0.0045
0.0075
0.0105
0.0128571
0.0128571
0.0128571
0.0128571
0.0128571
0.0128571
0.0128571
0.0128571
0.0128571
0.0128571
0.0128571
0.0128571
0.0128571
0.0128571
0.0128571
0.0128571
0.0015
0.0045
0.0075
0.01
0.01
0.01
0.01
0.01
0.01
0.01
0.01
0.01
0.01
0.01
0.01
0.01
0.01
0.01
0.01
0.01
0.0015
0.0045
0.00714286
0.00714286
0.00714286
0.00714286
0.00714286
0.00714286
0.00714286
0.00714286
0.00714286
0.00714286
0.00714286
0.00714286
0.00714286
0.00714286
0.00714286
0.00714286
0.00714286
0.00714286
0.0015
0.00428571
0.00428571
0.00428571
0.00428571
0.00428571
0.00428571
0.00428571
0.00428571
0.00428571
0.00428571
0.00428571
0.00428571
0.00428571
0.00428571
0.00428571
0.00428571
0.00428571
0.00428571
0.00428571
0.00142857
0.00142857
0.00142857
0.00142857
0.00142857
0.00142857
0.00142857
0.00142857
0.00142857
0.00142857
0.00142857
0.00142857
0.00142857
0.00142857
0.00142857
0.00142857
0.00142857
0.00142857
0.00142857
0.00142857
0.00245457
0.00666497
0.0104182
0.0143325
0.0183187
0.0223706
0.0264776
0.0306344
0.0348175
0.0390461
0.0433192
0.0476153
0.0519547
0.0563373
0.0607627
0.0652309
0.0697416
0.0742949
0.0788905
0.0835495
0.0882507
0.0929942
0.097801
0.10265
0.107562
0.112516
0.117534
0.122635
0.127779
0.132985
0.138276
0.14363
0.149047
0.154548
0.160133
0.165802
0.171555
0.177413
0.183377
0.189424
0.195576
0.201854
0.208238
0.214768
0.221509
0.22848
0.235724
0.243263
0.251116
0.259369
0.268083
0.277323
0.287192
0.29786
0.309577
0.322722
0.33801
0.357098
0.393951
0.00553123
0.00832729
0.0115532
0.0151781
0.018988
0.0229223
0.0269456
0.0310401
0.0351752
0.0393656
0.0436076
0.047878
0.0521958
0.0565598
0.0609693
0.0654234
0.0699219
0.0744642
0.0790501
0.0837003
0.0883937
0.09313
0.0979302
0.102773
0.10768
0.112629
0.117641
0.122739
0.127878
0.133081
0.138368
0.143719
0.149132
0.15463
0.160213
0.165879
0.17163
0.177485
0.183446
0.189491
0.195642
0.201918
0.2083
0.214828
0.221567
0.228536
0.235779
0.243316
0.251168
0.259419
0.268132
0.277369
0.287237
0.297903
0.309619
0.322763
0.338049
0.357135
0.393985
0.00795332
0.0103492
0.0132189
0.0164819
0.0200459
0.0238063
0.0277018
0.0316991
0.0357583
0.0398877
0.0440797
0.0483085
0.0525911
0.056925
0.0613083
0.0657397
0.070218
0.0747424
0.0793124
0.0839482
0.0886285
0.093353
0.0981424
0.102975
0.107873
0.112814
0.117819
0.122908
0.128041
0.133238
0.138519
0.143864
0.149272
0.154766
0.160343
0.166005
0.171752
0.177604
0.183561
0.189602
0.195749
0.202022
0.2084
0.214926
0.221662
0.228629
0.235868
0.243403
0.251252
0.2595
0.26821
0.277446
0.287311
0.297974
0.309688
0.322829
0.338112
0.357195
0.394039
0.0105945
0.0124943
0.0152423
0.0181455
0.021435
0.0249875
0.0287235
0.032596
0.0365559
0.0406045
0.0447295
0.0489024
0.0531373
0.0574301
0.0617778
0.0661778
0.0706285
0.0751283
0.0796762
0.0842921
0.0889544
0.0936626
0.098437
0.103256
0.108141
0.11307
0.118064
0.123144
0.128268
0.133455
0.138728
0.144066
0.149467
0.154953
0.160524
0.16618
0.171921
0.177767
0.183719
0.189756
0.195898
0.202166
0.20854
0.215062
0.221793
0.228756
0.235992
0.243523
0.251368
0.259613
0.26832
0.277551
0.287413
0.298073
0.309782
0.32292
0.338199
0.357277
0.394114
0.013325
0.0148807
0.0172522
0.0200795
0.0230955
0.026426
0.0299836
0.0337118
0.0375545
0.041506
0.0455496
0.0496537
0.0538297
0.0580715
0.0623746
0.0667354
0.0711514
0.0756202
0.0801403
0.084731
0.0893705
0.094058
0.0988134
0.103615
0.108484
0.113398
0.118379
0.123446
0.128557
0.133734
0.138996
0.144324
0.149716
0.155193
0.160756
0.166404
0.172138
0.177977
0.183922
0.189952
0.196088
0.202351
0.208719
0.215235
0.221962
0.228919
0.236151
0.243676
0.251517
0.259757
0.268459
0.277686
0.287543
0.298199
0.309904
0.323036
0.33831
0.357382
0.39421
0.0160996
0.0174095
0.0194758
0.0220987
0.0249734
0.0280824
0.0314534
0.0350257
0.0387385
0.0425804
0.0465309
0.0505556
0.0546629
0.0588448
0.0630953
0.0674096
0.0717842
0.076216
0.0807029
0.0852634
0.0898755
0.094538
0.0992705
0.104051
0.108901
0.113797
0.118761
0.123812
0.128909
0.134072
0.139322
0.144638
0.150019
0.155485
0.161038
0.166677
0.172401
0.178232
0.184169
0.190191
0.19632
0.202575
0.208937
0.215446
0.222167
0.229118
0.236343
0.243863
0.251698
0.259932
0.268629
0.27785
0.287702
0.298352
0.310051
0.323177
0.338445
0.35751
0.394326
0.0188987
0.0200267
0.0218472
0.0242149
0.0270234
0.0299203
0.0331049
0.0365162
0.0400914
0.043815
0.0476635
0.0516
0.0556304
0.0597447
0.0639355
0.0681969
0.0725241
0.0769134
0.0813619
0.0858875
0.0904679
0.0951015
0.0998073
0.104564
0.10939
0.114266
0.11921
0.124243
0.129323
0.134471
0.139706
0.145007
0.150375
0.155829
0.16137
0.166998
0.172712
0.178532
0.18446
0.190473
0.196593
0.20284
0.209193
0.215695
0.222408
0.229352
0.23657
0.244083
0.251911
0.260139
0.268829
0.278044
0.287889
0.298532
0.310224
0.323344
0.338604
0.357661
0.394463
0.021713
0.0227019
0.0243233
0.0264706
0.0290363
0.0319086
0.0349125
0.0381627
0.0415968
0.0451967
0.0489368
0.0527786
0.0567254
0.0607658
0.0648908
0.0690933
0.0733678
0.0777096
0.082115
0.0866014
0.091146
0.0957469
0.100423
0.105151
0.109952
0.114804
0.119726
0.124738
0.129799
0.134928
0.140146
0.145432
0.150784
0.156225
0.161752
0.167367
0.173069
0.178878
0.184794
0.190797
0.196906
0.203144
0.209489
0.215981
0.222686
0.229622
0.236832
0.244336
0.252157
0.260377
0.269059
0.278266
0.288104
0.298739
0.310424
0.323535
0.338787
0.357834
0.39462
0.0245372
0.0254167
0.026875
0.0288332
0.0312054
0.0340208
0.0368531
0.0399459
0.0432387
0.0467124
0.0503402
0.0540825
0.0579407
0.0619019
0.065956
0.0700948
0.0743118
0.0786015
0.0829597
0.0874028
0.0919079
0.0964725
0.101115
0.105813
0.110585
0.11541
0.120307
0.125297
0.130336
0.135445
0.140644
0.145911
0.151247
0.156671
0.162184
0.167784
0.173472
0.179268
0.185172
0.191163
0.197261
0.203488
0.209822
0.216305
0.222999
0.229926
0.237127
0.244622
0.252434
0.260645
0.269319
0.278518
0.288347
0.298974
0.31065
0.323752
0.338994
0.35803
0.394798
0.0273682
0.0281596
0.0294828
0.0312784
0.0334779
0.0360285
0.0389068
0.0418483
0.0450023
0.0483496
0.0518631
0.0555029
0.0592688
0.0631469
0.067126
0.0711969
0.0753523
0.0795861
0.0838932
0.0882895
0.0927516
0.0972767
0.101882
0.106546
0.111287
0.116083
0.120954
0.125917
0.130933
0.136019
0.141197
0.146445
0.151762
0.157168
0.162664
0.168248
0.173921
0.179703
0.185593
0.191571
0.197657
0.203871
0.210194
0.216666
0.223349
0.230266
0.237456
0.244942
0.252743
0.260945
0.269609
0.278798
0.288618
0.299235
0.310901
0.323994
0.339225
0.358249
0.394996
0.0302041
0.0309233
0.032133
0.0337882
0.0358342
0.038228
0.0410568
0.0438544
0.0468738
0.0500963
0.0534953
0.0570312
0.0607025
0.0644945
0.0683953
0.072395
0.0764854
0.0806598
0.0849126
0.0892587
0.0936748
0.0981574
0.102724
0.107351
0.112058
0.116823
0.121663
0.126599
0.131589
0.136651
0.141806
0.147032
0.152328
0.157715
0.163193
0.16876
0.174416
0.180182
0.186057
0.19202
0.198092
0.204294
0.210604
0.217063
0.223735
0.23064
0.237819
0.245294
0.253085
0.261276
0.269929
0.279108
0.288917
0.299524
0.311179
0.32426
0.339479
0.35849
0.395215
0.0273657
0.0281524
0.0294713
0.0312632
0.0334596
0.0361569
0.0388301
0.0417734
0.0449293
0.0482785
0.0517939
0.0554355
0.059203
0.0630827
0.0670632
0.0711355
0.0752921
0.0795271
0.0838353
0.0882325
0.0926956
0.0972215
0.101828
0.106493
0.111234
0.116031
0.120902
0.125866
0.130882
0.135969
0.141147
0.146396
0.151713
0.15712
0.162616
0.168201
0.173874
0.179656
0.185546
0.191525
0.197611
0.203826
0.210149
0.216621
0.223305
0.230221
0.237412
0.244898
0.2527
0.260902
0.269566
0.278756
0.288575
0.299193
0.310859
0.323952
0.339183
0.358208
0.394956
0.0245347
0.0254095
0.0268637
0.0288184
0.0311878
0.0339457
0.0367801
0.0398753
0.0431703
0.0466462
0.050276
0.0540202
0.0578801
0.0618429
0.0658985
0.0700387
0.0742568
0.0785477
0.082907
0.0873511
0.0918571
0.0964225
0.101065
0.105764
0.110537
0.115363
0.120261
0.12525
0.13029
0.1354
0.140599
0.145867
0.151203
0.156628
0.16214
0.167741
0.173429
0.179226
0.18513
0.191121
0.19722
0.203447
0.209781
0.216265
0.222959
0.229886
0.237087
0.244583
0.252395
0.260606
0.26928
0.278479
0.288308
0.298935
0.310612
0.323714
0.338956
0.357993
0.394761
0.0217105
0.0226948
0.0243123
0.0264565
0.0291355
0.0318374
0.034844
0.038097
0.0415336
0.0451358
0.0488781
0.0527218
0.0566704
0.0607124
0.0648388
0.0690427
0.0733183
0.0776612
0.0820677
0.0865549
0.0911004
0.095702
0.100378
0.105108
0.109909
0.114762
0.119684
0.124697
0.129758
0.134888
0.140106
0.145392
0.150745
0.156186
0.161714
0.167329
0.173031
0.17884
0.184757
0.19076
0.19687
0.203108
0.209452
0.215945
0.22265
0.229586
0.236796
0.244301
0.252122
0.260342
0.269024
0.278232
0.28807
0.298705
0.31039
0.323502
0.338753
0.357801
0.394587
0.0188963
0.0200198
0.0218366
0.0242015
0.0269536
0.0298539
0.0330417
0.0364561
0.040034
0.0437601
0.0476107
0.0515492
0.0555813
0.0596972
0.0638894
0.0681519
0.0724803
0.0768706
0.0813201
0.0858465
0.0904277
0.095062
0.0997685
0.104526
0.109353
0.114229
0.119173
0.124207
0.129288
0.134435
0.139671
0.144972
0.150341
0.155795
0.161337
0.166964
0.172678
0.178499
0.184427
0.19044
0.19656
0.202808
0.209162
0.215664
0.222376
0.229321
0.236539
0.244052
0.251881
0.260108
0.268798
0.278014
0.287859
0.298502
0.310195
0.323314
0.338574
0.357632
0.394434
0.0160971
0.0174027
0.0194657
0.0221446
0.0249087
0.0280217
0.0313963
0.0349719
0.0386875
0.0425319
0.0464846
0.0505111
0.05462
0.0588034
0.0630552
0.0673707
0.0717462
0.076179
0.0806667
0.085228
0.0898408
0.094504
0.099237
0.104018
0.108868
0.113765
0.118729
0.123781
0.128878
0.134042
0.139292
0.144608
0.149989
0.155456
0.161009
0.166648
0.172373
0.178204
0.184141
0.190163
0.196292
0.202548
0.20891
0.215419
0.22214
0.229091
0.236317
0.243836
0.251672
0.259906
0.268603
0.277825
0.287676
0.298326
0.310025
0.323152
0.33842
0.357485
0.394301
0.0133226
0.0148743
0.0172429
0.020016
0.0230372
0.0263723
0.0299337
0.0336652
0.0375107
0.0414645
0.0455102
0.049616
0.0537935
0.0580366
0.0623408
0.0667026
0.0711194
0.0755891
0.0801099
0.0847013
0.0893414
0.0940294
0.0987853
0.103588
0.108457
0.113372
0.118352
0.123419
0.128531
0.133708
0.138971
0.144299
0.149691
0.155169
0.160732
0.16638
0.172114
0.177953
0.183899
0.189929
0.196065
0.202328
0.208696
0.215213
0.221939
0.228897
0.236128
0.243654
0.251495
0.259735
0.268437
0.277665
0.287522
0.298177
0.309882
0.323015
0.338289
0.357361
0.394189
0.0105921
0.0124883
0.0151791
0.0180892
0.0213847
0.024942
0.0286819
0.0325574
0.0365199
0.0405706
0.0446974
0.0488717
0.0531079
0.0574018
0.0617504
0.0661513
0.0706027
0.0751033
0.0796518
0.0842682
0.088931
0.0936397
0.0984145
0.103234
0.108119
0.113049
0.118043
0.123123
0.128247
0.133435
0.138708
0.144046
0.149447
0.154934
0.160505
0.166161
0.171902
0.177748
0.1837
0.189737
0.195879
0.202148
0.208522
0.215044
0.221775
0.228738
0.235975
0.243505
0.251351
0.259595
0.268302
0.277534
0.287396
0.298056
0.309766
0.322903
0.338182
0.35726
0.394098
0.00795109
0.010344
0.0131642
0.0164354
0.0200055
0.0237705
0.0276694
0.0316693
0.0357306
0.0398618
0.0440552
0.0482852
0.0525688
0.0569036
0.0612876
0.0657197
0.0701986
0.0747235
0.0792939
0.0839301
0.0886108
0.0933357
0.0981254
0.102959
0.107856
0.112797
0.117803
0.122893
0.128026
0.133222
0.138504
0.143849
0.149258
0.154751
0.160329
0.165991
0.171737
0.177589
0.183547
0.189588
0.195735
0.202008
0.208387
0.214912
0.221648
0.228615
0.235855
0.243389
0.251239
0.259487
0.268197
0.277433
0.287298
0.297962
0.309675
0.322816
0.338099
0.357182
0.394027
0.0055293
0.00827262
0.0115114
0.0151443
0.0189595
0.0228974
0.0269233
0.0310198
0.0351564
0.0393481
0.0435911
0.0478623
0.0521807
0.0565454
0.0609554
0.06541
0.0699089
0.0744515
0.0790378
0.0836882
0.0883818
0.0931184
0.0979188
0.102762
0.107669
0.112618
0.117631
0.122728
0.127868
0.133071
0.138358
0.143709
0.149122
0.154621
0.160203
0.165869
0.17162
0.177476
0.183437
0.189482
0.195632
0.201909
0.20829
0.214819
0.221558
0.228527
0.23577
0.243307
0.251159
0.25941
0.268123
0.277361
0.287229
0.297895
0.309611
0.322754
0.33804
0.357127
0.393977
0.00245312
0.00663063
0.0103949
0.0143145
0.0183038
0.0223578
0.0264662
0.0306241
0.0348079
0.0390372
0.0433108
0.0476073
0.0519471
0.05633
0.0607557
0.0652241
0.069735
0.0742885
0.0788843
0.0835434
0.0882448
0.0929884
0.0977952
0.102644
0.107556
0.112511
0.117528
0.12263
0.127773
0.13298
0.138271
0.143625
0.149042
0.154543
0.160128
0.165797
0.17155
0.177409
0.183372
0.189419
0.195571
0.20185
0.208233
0.214764
0.221504
0.228475
0.23572
0.243258
0.251112
0.259364
0.268079
0.277318
0.287188
0.297855
0.309573
0.322718
0.338006
0.357094
0.393947
0.001995
0.005985
0.009996
0.014028
0.018081
0.022176
0.026313
0.030492
0.034692
0.038934
0.043218
0.047523
0.05187
0.056259
0.06069
0.065163
0.069678
0.074235
0.078834
0.083496
0.0882
0.092946
0.097755
0.102606
0.10752
0.112476
0.117495
0.122598
0.127743
0.132951
0.138243
0.143598
0.149016
0.154518
0.160104
0.165774
0.171528
0.177387
0.183351
0.189399
0.195552
0.201831
0.208215
0.214746
0.221487
0.228459
0.235704
0.243243
0.251097
0.25935
0.268065
0.277305
0.287175
0.297843
0.309561
0.322707
0.337995
0.357084
0.393939
0.001995
0.005985
0.009996
0.014028
0.018081
0.022176
0.026313
0.030492
0.034692
0.038934
0.043218
0.047523
0.05187
0.056259
0.06069
0.065163
0.069678
0.074235
0.078834
0.083496
0.0882
0.092946
0.097755
0.102606
0.10752
0.112476
0.117495
0.122598
0.127743
0.132951
0.138243
0.143598
0.149016
0.154518
0.160104
0.165774
0.171528
0.177387
0.183351
0.189399
0.195552
0.201831
0.208215
0.214746
0.221487
0.228459
0.235704
0.243243
0.251097
0.25935
0.268065
0.277305
0.287175
0.297843
0.309561
0.322707
0.337995
0.357084
0.393939
0.001995
0.005985
0.009996
0.014028
0.018081
0.022176
0.026313
0.030492
0.034692
0.038934
0.043218
0.047523
0.05187
0.056259
0.06069
0.065163
0.069678
0.074235
0.078834
0.083496
0.0882
0.092946
0.097755
0.102606
0.10752
0.112476
0.117495
0.122598
0.127743
0.132951
0.138243
0.143598
0.149016
0.154518
0.160104
0.165774
0.171528
0.177387
0.183351
0.189399
0.195552
0.201831
0.208215
0.214746
0.221487
0.228459
0.235704
0.243243
0.251097
0.25935
0.268065
0.277305
0.287175
0.297843
0.309561
0.322707
0.337995
0.357084
0.393939
0.001995
0.005985
0.009996
0.014028
0.018081
0.022176
0.026313
0.030492
0.034692
0.038934
0.043218
0.047523
0.05187
0.056259
0.06069
0.065163
0.069678
0.074235
0.078834
0.083496
0.0882
0.092946
0.097755
0.102606
0.10752
0.112476
0.117495
0.122598
0.127743
0.132951
0.138243
0.143598
0.149016
0.154518
0.160104
0.165774
0.171528
0.177387
0.183351
0.189399
0.195552
0.201831
0.208215
0.214746
0.221487
0.228459
0.235704
0.243243
0.251097
0.25935
0.268065
0.277305
0.287175
0.297843
0.309561
0.322707
0.337995
0.357084
0.393939
0.001995
0.005985
0.009996
0.014028
0.018081
0.022176
0.026313
0.030492
0.034692
0.038934
0.043218
0.047523
0.05187
0.056259
0.06069
0.065163
0.069678
0.074235
0.078834
0.083496
0.0882
0.092946
0.097755
0.102606
0.10752
0.112476
0.117495
0.122598
0.127743
0.132951
0.138243
0.143598
0.149016
0.154518
0.160104
0.165774
0.171528
0.177387
0.183351
0.189399
0.195552
0.201831
0.208215
0.214746
0.221487
0.228459
0.235704
0.243243
0.251097
0.25935
0.268065
0.277305
0.287175
0.297843
0.309561
0.322707
0.337995
0.357084
0.393939
0.001995
0.005985
0.009996
0.014028
0.018081
0.022176
0.026313
0.030492
0.034692
0.038934
0.043218
0.047523
0.05187
0.056259
0.06069
0.065163
0.069678
0.074235
0.078834
0.083496
0.0882
0.092946
0.097755
0.102606
0.10752
0.112476
0.117495
0.122598
0.127743
0.132951
0.138243
0.143598
0.149016
0.154518
0.160104
0.165774
0.171528
0.177387
0.183351
0.189399
0.195552
0.201831
0.208215
0.214746
0.221487
0.228459
0.235704
0.243243
0.251097
0.25935
0.268065
0.277305
0.287175
0.297843
0.309561
0.322707
0.337995
0.357084
0.393939
0.001995
0.005985
0.009996
0.014028
0.018081
0.022176
0.026313
0.030492
0.034692
0.038934
0.043218
0.047523
0.05187
0.056259
0.06069
0.065163
0.069678
0.074235
0.078834
0.083496
0.0882
0.092946
0.097755
0.102606
0.10752
0.112476
0.117495
0.122598
0.127743
0.132951
0.138243
0.143598
0.149016
0.154518
0.160104
0.165774
0.171528
0.177387
0.183351
0.189399
0.195552
0.201831
0.208215
0.214746
0.221487
0.228459
0.235704
0.243243
0.251097
0.25935
0.268065
0.277305
0.287175
0.297843
0.309561
0.322707
0.337995
0.357084
0.393939
0.001995
0.005985
0.009996
0.014028
0.018081
0.022176
0.026313
0.030492
0.034692
0.038934
0.043218
0.047523
0.05187
0.056259
0.06069
0.065163
0.069678
0.074235
0.078834
0.083496
0.0882
0.092946
0.097755
0.102606
0.10752
0.112476
0.117495
0.122598
0.127743
0.132951
0.138243
0.143598
0.149016
0.154518
0.160104
0.165774
0.171528
0.177387
0.183351
0.189399
0.195552
0.201831
0.208215
0.214746
0.221487
0.228459
0.235704
0.243243
0.251097
0.25935
0.268065
0.277305
0.287175
0.297843
0.309561
0.322707
0.337995
0.357084
0.393939
0.001995
0.005985
0.009996
0.014028
0.018081
0.022176
0.026313
0.030492
0.034692
0.038934
0.043218
0.047523
0.05187
0.056259
0.06069
0.065163
0.069678
0.074235
0.078834
0.083496
0.0882
0.092946
0.097755
0.102606
0.10752
0.112476
0.117495
0.122598
0.127743
0.132951
0.138243
0.143598
0.149016
0.154518
0.160104
0.165774
0.171528
0.177387
0.183351
0.189399
0.195552
0.201831
0.208215
0.214746
0.221487
0.228459
0.235704
0.243243
0.251097
0.25935
0.268065
0.277305
0.287175
0.297843
0.309561
0.322707
0.337995
0.357084
0.393939
0.001995
0.005985
0.009996
0.014028
0.018081
0.022176
0.026313
0.030492
0.034692
0.038934
0.043218
0.047523
0.05187
0.056259
0.06069
0.065163
0.069678
0.074235
0.078834
0.083496
0.0882
0.092946
0.097755
0.102606
0.10752
0.112476
0.117495
0.122598
0.127743
0.132951
0.138243
0.143598
0.149016
0.154518
0.160104
0.165774
0.171528
0.177387
0.183351
0.189399
0.195552
0.201831
0.208215
0.214746
0.221487
0.228459
0.235704
0.243243
0.251097
0.25935
0.268065
0.277305
0.287175
0.297843
0.309561
0.322707
0.337995
0.357084
0.393939
0.001995
0.005985
0.009996
0.014028
0.018081
0.022176
0.026313
0.030492
0.034692
0.038934
0.043218
0.047523
0.05187
0.056259
0.06069
0.065163
0.069678
0.074235
0.078834
0.083496
0.0882
0.092946
0.097755
0.102606
0.10752
0.112476
0.117495
0.122598
0.127743
0.132951
0.138243
0.143598
0.149016
0.154518
0.160104
0.165774
0.171528
0.177387
0.183351
0.189399
0.195552
0.201831
0.208215
0.214746
0.221487
0.228459
0.235704
0.243243
0.251097
0.25935
0.268065
0.277305
0.287175
0.297843
0.309561
0.322707
0.337995
0.357084
0.393939
0.001995
0.005985
0.009996
0.014028
0.018081
0.022176
0.026313
0.030492
0.034692
0.038934
0.043218
0.047523
0.05187
0.056259
0.06069
0.065163
0.069678
0.074235
0.078834
0.083496
0.0882
0.092946
0.097755
0.102606
0.10752
0.112476
0.117495
0.122598
0.127743
0.132951
0.138243
0.143598
0.149016
0.154518
0.160104
0.165774
0.171528
0.177387
0.183351
0.189399
0.195552
0.201831
0.208215
0.214746
0.221487
0.228459
0.235704
0.243243
0.251097
0.25935
0.268065
0.277305
0.287175
0.297843
0.309561
0.322707
0.337995
0.357084
0.393939
0.001995
0.005985
0.009996
0.014028
0.018081
0.022176
0.026313
0.030492
0.034692
0.038934
0.043218
0.047523
0.05187
0.056259
0.06069
0.065163
0.069678
0.074235
0.078834
0.083496
0.0882
0.092946
0.097755
0.102606
0.10752
0.112476
0.117495
0.122598
0.127743
0.132951
0.138243
0.143598
0.149016
0.154518
0.160104
0.165774
0.171528
0.177387
0.183351
0.189399
0.195552
0.201831
0.208215
0.214746
0.221487
0.228459
0.235704
0.243243
0.251097
0.25935
0.268065
0.277305
0.287175
0.297843
0.309561
0.322707
0.337995
0.357084
0.393939
0.001995
0.005985
0.009996
0.014028
0.018081
0.022176
0.026313
0.030492
0.034692
0.038934
0.043218
0.047523
0.05187
0.056259
0.06069
0.065163
0.069678
0.074235
0.078834
0.083496
0.0882
0.092946
0.097755
0.102606
0.10752
0.112476
0.117495
0.122598
0.127743
0.132951
0.138243
0.143598
0.149016
0.154518
0.160104
0.165774
0.171528
0.177387
0.183351
0.189399
0.195552
0.201831
0.208215
0.214746
0.221487
0.228459
0.235704
0.243243
0.251097
0.25935
0.268065
0.277305
0.287175
0.297843
0.309561
0.322707
0.337995
0.357084
0.393939
0.001995
0.005985
0.009996
0.014028
0.018081
0.022176
0.026313
0.030492
0.034692
0.038934
0.043218
0.047523
0.05187
0.056259
0.06069
0.065163
0.069678
0.074235
0.078834
0.083496
0.0882
0.092946
0.097755
0.102606
0.10752
0.112476
0.117495
0.122598
0.127743
0.132951
0.138243
0.143598
0.149016
0.154518
0.160104
0.165774
0.171528
0.177387
0.183351
0.189399
0.195552
0.201831
0.208215
0.214746
0.221487
0.228459
0.235704
0.243243
0.251097
0.25935
0.268065
0.277305
0.287175
0.297843
0.309561
0.322707
0.337995
0.357084
0.393939
0.001995
0.005985
0.00999601
0.014028
0.018081
0.022176
0.026313
0.030492
0.034692
0.038934
0.043218
0.047523
0.05187
0.056259
0.06069
0.065163
0.069678
0.074235
0.078834
0.083496
0.0882
0.092946
0.097755
0.102606
0.10752
0.112476
0.117495
0.122598
0.127743
0.132951
0.138243
0.143598
0.149016
0.154518
0.160104
0.165774
0.171528
0.177387
0.183351
0.189399
0.195552
0.201831
0.208215
0.214746
0.221487
0.228459
0.235704
0.243243
0.251097
0.25935
0.268065
0.277305
0.287175
0.297843
0.309561
0.322707
0.337995
0.357084
0.393939
0.001995
0.005985
0.009996
0.014028
0.018081
0.022176
0.026313
0.030492